created with groupy

14592 atoms
11904 bonds
10368 angles
6016 dihedrals
384 impropers

58 atom types
54 bond types
55 angle types
43 dihedral types
3 improper types

-28.844410 28.844410 xlo xhi
-28.844410 28.844410 ylo yhi
-58.057255 58.057255 zlo zhi

Masses

1 15.9994
2 15.9994
3 15.9994
4 15.9994
5 15.9994
6 14.0067
7 14.0067
8 14.0067
9 14.0067
10 14.0067
11 14.0067
12 12.0110
13 12.0110
14 13.0190
15 14.0270
16 15.0350
17 16.0430
18 14.0270
19 13.0190
20 1.0080
21 1.0080
22 999.0   # dummy, this type not in this system
23 32.0600
24 63.5460
25 63.5460
26 55.8470
27 65.3700
28 24.3050
29 40.0800
30 30.9738
31 39.9480
32 18.9984
33 35.4350
34 79.9040
35 15.0350
36 15.9994
37 22.9898
38 35.4350
39 12.0110
40 35.4350
41 1.0080
42 32.0600
43 15.0350
44 15.9994
45 12.0110
46 35.4350
47 18.9984
48 12.0110
49 14.0270
50 15.9994
51 12.0110
52 15.9994
53 14.0067
54 28.0800
55 999.0   # dummy, this type not in this system
56 999.0   # dummy, this type not in this system
57 15.9994
58 1.0080

Atoms

1 1 16 0.40000 26.80276 -21.91891 46.02841
2 1 16 0.40000 24.87709 -21.09025 44.91841
3 1 16 0.40000 26.94716 -21.28214 43.74141
4 1 8 -0.50000 26.08415 -21.91261 44.74241
5 1 15 0.30000 25.70324 -23.27322 44.35241
6 1 15 0.40000 25.20080 -24.60357 43.75441
7 1 3 -0.80000 24.75744 -25.51015 42.86941
8 1 30 1.70000 25.24507 -25.08875 41.33741
9 1 2 -0.80000 26.57550 -25.76606 41.12141
10 1 2 -0.80000 25.17973 -23.56750 41.34041
11 1 3 -0.70000 24.08924 -25.75915 40.36041
12 1 15 0.40000 23.97297 -25.33356 39.07041
13 1 14 0.30000 23.81457 -24.49119 37.87741
14 1 4 -0.70000 24.04460 -24.88517 36.45741
15 1 12 0.70000 22.96059 -24.95898 35.53641
16 1 1 -0.70000 21.79755 -25.05911 35.91741
17 1 15 0.00000 23.21485 -24.88722 33.98041
18 1 15 0.00000 23.20961 -24.78046 32.14641
19 1 15 0.00000 23.17166 -24.67030 30.30041
20 1 15 0.00000 23.15861 -24.56954 28.44541
21 1 15 0.00000 23.18158 -24.48580 26.58641
22 1 15 0.00000 23.23907 -24.42149 24.72741
23 1 15 0.00000 23.32745 -24.37851 22.87241
24 1 15 0.00000 23.44429 -24.35541 21.02841
25 1 15 0.00000 23.58132 -24.35623 19.20241
26 1 15 0.00000 23.73489 -24.38289 17.40541
27 1 15 0.00000 23.90181 -24.43924 15.64941
28 1 15 0.00000 24.08449 -24.52676 13.95241
29 1 15 0.00000 24.26856 -24.65406 12.31741
30 1 15 0.00000 24.44799 -24.81747 10.73341
31 1 15 0.00000 24.61680 -25.00506 9.18841
32 1 15 0.00000 24.81148 -25.10819 7.51441
33 1 16 0.00000 24.96503 -25.35605 6.05941
34 1 15 0.50000 24.15654 -23.14821 38.25741
35 1 4 -0.70000 24.46635 -22.04244 38.94741
36 1 12 0.80000 25.01350 -20.98215 38.32141
37 1 1 -0.60000 25.22038 -19.88892 38.87641
38 1 15 0.00000 25.33073 -21.14106 36.93641
39 1 15 0.00000 25.65271 -21.43873 35.48241
40 1 15 0.00000 26.01338 -21.78157 34.04841
41 1 15 0.00000 26.39576 -22.10784 32.61541
42 1 15 0.00000 26.74810 -22.39921 31.16541
43 1 15 0.00000 27.03325 -22.65948 29.69341
44 1 15 0.00000 27.24780 -22.89156 28.20341
45 1 15 0.00000 27.41098 -23.08565 26.70041
46 1 15 0.00000 27.54163 -23.22176 25.18641
47 1 15 0.00000 27.64228 -23.28487 23.66541
48 1 15 0.00000 27.69832 -23.28264 22.13941
49 1 15 0.00000 27.68966 -23.24255 20.61141
50 1 15 0.00000 27.61215 -23.19854 19.08541
51 1 15 0.00000 27.48479 -23.16966 17.56141
52 1 15 0.00000 27.33649 -23.15202 16.03641
53 1 15 0.00000 27.27991 -23.09676 14.51141
54 1 16 0.00000 27.06083 -23.10549 12.98741
55 2 16 0.40000 27.62756 26.99004 44.39169
56 2 16 0.40000 26.25941 28.57846 43.28169
57 2 16 0.40000 28.03628 27.49922 42.10469
58 2 8 -0.50000 26.98431 27.31046 43.10569
59 2 15 0.30000 26.04591 26.25417 42.71569
60 2 15 0.40000 25.01153 25.27831 42.11769
61 2 3 -0.80000 24.21586 24.65752 41.23269
62 2 30 1.70000 24.83879 24.82276 39.70069
63 2 2 -0.80000 25.73813 23.63112 39.48469
64 2 2 -0.80000 25.44640 26.21893 39.70369
65 2 3 -0.70000 23.50610 24.72636 38.72369
66 2 15 0.40000 23.58799 25.15989 37.43369
67 2 14 0.30000 23.81457 25.98653 36.24069
68 2 4 -0.70000 23.84879 25.53160 34.82069
69 2 12 0.70000 22.84197 25.94006 33.89969
70 2 1 -0.70000 21.75258 26.35948 34.28069
71 2 15 0.00000 23.10197 25.89320 32.34369
72 2 15 0.00000 23.14403 25.99146 30.50969
73 2 15 0.00000 23.15816 26.10712 28.66369
74 2 15 0.00000 23.19057 26.20341 26.80869
75 2 15 0.00000 23.24789 26.26864 24.94969
76 2 15 0.00000 23.32775 26.30127 23.09069
77 2 15 0.00000 23.42602 26.30119 21.23569
78 2 15 0.00000 23.54118 26.27078 19.39169
79 2 15 0.00000 23.66401 26.21002 17.56569
80 2 15 0.00000 23.79038 26.11879 15.76869
81 2 15 0.00000 23.91575 25.99502 14.01269
82 2 15 0.00000 24.04164 25.83633 12.31569
83 2 15 0.00000 24.15135 25.64125 10.68069
84 2 15 0.00000 24.24108 25.41576 9.09669
85 2 15 0.00000 24.31067 25.17319 7.55169
86 2 15 0.00000 24.44050 24.99520 5.87769
87 2 16 0.00000 24.46997 24.70513 4.42269
88 2 15 0.50000 24.71024 27.04404 36.62069
89 2 4 -0.70000 25.47310 27.90238 37.31069
90 2 12 0.80000 26.42940 28.61588 36.68469
91 2 1 -0.60000 27.09423 29.50804 37.23969
92 2 15 0.00000 26.64497 28.33407 35.29969
93 2 15 0.00000 26.80402 27.92545 33.84569
94 2 15 0.00000 26.97808 27.45926 32.41169
95 2 15 0.00000 27.17892 26.99847 30.97869
96 2 15 0.00000 27.36804 26.58221 29.52869
97 2 15 0.00000 27.51038 26.22333 28.05669
98 2 15 0.00000 27.60160 25.92072 26.56669
99 2 15 0.00000 27.66328 25.67477 25.06369
100 2 15 0.00000 27.72110 25.49518 23.54969
101 2 15 0.00000 27.78394 25.39436 22.02869
102 2 15 0.00000 27.83530 25.37182 20.50269
103 2 15 0.00000 27.84507 25.41165 18.97469
104 2 15 0.00000 27.79467 25.48517 17.44869
105 2 15 0.00000 27.69283 25.56692 15.92469
106 2 15 0.00000 27.56724 25.64774 14.39969
107 2 15 0.00000 27.54058 25.72219 12.87469
108 2 16 0.00000 27.33981 25.81030 11.35069
109 3 16 0.40000 19.83776 -22.23614 44.50580
110 3 16 0.40000 18.00635 -21.21594 43.39580
111 3 16 0.40000 20.04617 -21.61736 42.21880
112 3 8 -0.50000 19.12352 -22.15679 43.21980
113 3 15 0.30000 18.60621 -23.47161 42.82980
114 3 15 0.40000 17.97109 -24.74396 42.23180
115 3 3 -0.80000 17.43782 -25.60076 41.34680
116 3 30 1.70000 17.96577 -25.23113 39.81480
117 3 2 -0.80000 19.22043 -26.04024 39.59880
118 3 2 -0.80000 18.05549 -23.71113 39.81780
119 3 3 -0.70000 16.74777 -25.78051 38.83780
120 3 15 0.40000 16.67538 -25.34530 37.54780
121 3 14 0.30000 16.60347 -24.49119 36.35480
122 3 4 -0.70000 16.79224 -24.90652 34.93480
123 3 12 0.70000 15.70634 -24.86971 34.01380
124 3 1 -0.70000 14.53915 -24.85104 34.39480
125 3 15 0.00000 15.96658 -24.82418 32.45780
126 3 15 0.00000 15.97223 -24.71744 30.62380
127 3 15 0.00000 15.94567 -24.60398 28.77780
128 3 15 0.00000 15.94294 -24.50242 26.92280
129 3 15 0.00000 15.97431 -24.42145 25.06380
130 3 15 0.00000 16.03804 -24.36332 23.20480
131 3 15 0.00000 16.13033 -24.32956 21.34980
132 3 15 0.00000 16.24892 -24.31845 19.50580
133 3 15 0.00000 16.38515 -24.33321 17.67980
134 3 15 0.00000 16.53521 -24.37534 15.88280
135 3 15 0.00000 16.69553 -24.44838 14.12680
136 3 15 0.00000 16.86837 -24.55402 12.42980
137 3 15 0.00000 17.03854 -24.69939 10.79480
138 3 15 0.00000 17.20042 -24.88020 9.21080
139 3 15 0.00000 17.34928 -25.08398 7.66580
140 3 15 0.00000 17.53246 -25.20638 5.99180
141 3 16 0.00000 17.66001 -25.46857 4.53680
142 3 15 0.50000 17.08024 -23.18995 36.73480
143 3 4 -0.70000 17.50091 -22.12142 37.42480
144 3 12 0.80000 18.15305 -21.12228 36.79880
145 3 1 -0.60000 18.47004 -20.05575 37.35380
146 3 15 0.00000 18.45247 -21.31262 35.41380
147 3 15 0.00000 18.74250 -21.64150 33.95980
148 3 15 0.00000 19.06644 -22.01924 32.52580
149 3 15 0.00000 19.41366 -22.38270 31.09280
150 3 15 0.00000 19.73454 -22.70839 29.64280
151 3 15 0.00000 19.99174 -22.99632 28.17080
152 3 15 0.00000 20.18158 -23.24901 26.68080
153 3 15 0.00000 20.32418 -23.45869 25.17780
154 3 15 0.00000 20.44030 -23.60738 23.66380
155 3 15 0.00000 20.53401 -23.68040 22.14280
156 3 15 0.00000 20.58999 -23.68388 20.61680
157 3 15 0.00000 20.58545 -23.64312 19.08880
158 3 15 0.00000 20.51282 -23.59145 17.56280
159 3 15 0.00000 20.38906 -23.54977 16.03880
160 3 15 0.00000 20.24332 -23.51713 14.51380
161 3 15 0.00000 20.19266 -23.45642 12.98880
162 3 16 0.00000 19.97382 -23.44282 11.46480
163 4 16 0.40000 25.84932 -20.65732 43.97306
164 4 16 0.40000 26.98918 -18.89788 42.86306
165 4 16 0.40000 26.45285 -20.90646 41.68606
166 4 8 -0.50000 25.97604 -19.94995 42.68706
167 4 15 0.30000 24.69857 -19.34626 42.29706
168 4 15 0.40000 23.47132 -18.62785 41.69906
169 4 3 -0.80000 22.65193 -18.03873 40.81406
170 4 30 1.70000 22.98559 -18.59012 39.28206
171 4 2 -0.80000 22.09476 -19.78813 39.06606
172 4 2 -0.80000 24.49625 -18.78082 39.28506
173 4 3 -0.70000 22.51851 -17.33824 38.30506
174 4 15 0.40000 22.95757 -17.29498 37.01506
175 4 14 0.30000 23.81457 -17.28009 35.82206
176 4 4 -0.70000 23.38760 -17.44079 34.40206
177 4 12 0.70000 23.49661 -16.35975 33.48106
178 4 1 -0.70000 23.59294 -15.19639 33.86206
179 4 15 0.00000 23.52472 -16.62244 31.92506
180 4 15 0.00000 23.63085 -16.63519 30.09106
181 4 15 0.00000 23.74582 -16.61624 28.24506
182 4 15 0.00000 23.84734 -16.62028 26.39006
183 4 15 0.00000 23.92604 -16.65696 24.53106
184 4 15 0.00000 23.97980 -16.72443 22.67206
185 4 15 0.00000 24.00734 -16.81876 20.81706
186 4 15 0.00000 24.01053 -16.93782 18.97306
187 4 15 0.00000 23.98674 -17.07278 17.14706
188 4 15 0.00000 23.93471 -17.21970 15.35006
189 4 15 0.00000 23.85116 -17.37480 13.59406
190 4 15 0.00000 23.73425 -17.54022 11.89706
191 4 15 0.00000 23.57788 -17.70034 10.26206
192 4 15 0.00000 23.38669 -17.84982 8.67806
193 4 15 0.00000 23.17346 -17.98478 7.13306
194 4 15 0.00000 23.03913 -18.15941 5.45906
195 4 16 0.00000 22.76904 -18.26922 4.00406
196 4 15 0.50000 25.08119 -17.84243 36.20206
197 4 4 -0.70000 26.11935 -18.33329 36.89206
198 4 12 0.80000 27.07286 -19.05050 36.26606
199 4 1 -0.60000 28.11592 -19.43778 36.82106
200 4 15 0.00000 26.86301 -19.33658 34.88106
201 4 15 0.00000 26.51556 -19.60408 33.42706
202 4 15 0.00000 26.11709 -19.90215 31.99306
203 4 15 0.00000 25.73132 -20.22440 30.56006
204 4 15 0.00000 25.38499 -20.52289 29.11006
205 4 15 0.00000 25.08058 -20.76036 27.63806
206 4 15 0.00000 24.81581 -20.93295 26.14806
207 4 15 0.00000 24.59710 -21.06127 24.64506
208 4 15 0.00000 24.44101 -21.16725 23.13106
209 4 15 0.00000 24.36192 -21.25589 21.61006
210 4 15 0.00000 24.35472 -21.31151 20.08406
211 4 15 0.00000 24.39569 -21.30969 18.55606
212 4 15 0.00000 24.45208 -21.24066 17.03006
213 4 15 0.00000 24.50191 -21.11995 15.50606
214 4 15 0.00000 24.54417 -20.97671 13.98106
215 4 15 0.00000 24.60813 -20.93020 12.45606
216 4 16 0.00000 24.63626 -20.71275 10.93206
217 5 16 0.40000 12.33631 1.73042 43.92701
218 5 16 0.40000 12.90374 3.74856 42.81701
219 5 16 0.40000 12.98656 1.67127 41.64001
220 5 8 -0.50000 12.24777 2.44358 42.64101
221 5 15 0.30000 10.84881 2.64170 42.25101
222 5 15 0.40000 9.46382 2.96428 41.65301
223 5 3 -0.80000 8.50667 3.28419 40.76801
224 5 30 1.70000 8.98871 2.85641 39.23601
225 5 2 -0.80000 8.49280 1.44826 39.02001
226 5 2 -0.80000 10.48805 3.12182 39.23901
227 5 3 -0.70000 8.17171 3.91370 38.25901
228 5 15 0.40000 8.57825 4.08510 36.96901
229 5 14 0.30000 9.39237 4.35322 35.77601
230 5 4 -0.70000 9.03217 4.07323 34.35601
231 5 12 0.70000 8.81602 5.13804 33.43501
232 5 1 -0.70000 8.56337 6.27771 33.81601
233 5 15 0.00000 8.92069 4.89547 31.87901
234 5 15 0.00000 9.02583 4.91474 30.04501
235 5 15 0.00000 9.13003 4.96689 28.19901
236 5 15 0.00000 9.22818 4.99311 26.34401
237 5 15 0.00000 9.31422 4.98139 24.48501
238 5 15 0.00000 9.38556 4.93288 22.62601
239 5 15 0.00000 9.43981 4.85095 20.77101
240 5 15 0.00000 9.47813 4.73817 18.92701
241 5 15 0.00000 9.49539 4.60223 17.10101
242 5 15 0.00000 9.48922 4.44649 15.30401
243 5 15 0.00000 9.45537 4.27360 13.54801
244 5 15 0.00000 9.39272 4.08097 11.85101
245 5 15 0.00000 9.29080 3.88171 10.21601
246 5 15 0.00000 9.15248 3.68230 8.63201
247 5 15 0.00000 8.98881 3.49022 7.08701
248 5 15 0.00000 8.91225 3.28364 5.41301
249 5 16 0.00000 8.68681 3.09874 3.95801
250 5 15 0.50000 10.76872 4.19138 36.15601
251 5 4 -0.70000 11.90569 4.03012 36.84601
252 5 12 0.80000 13.02889 3.62760 36.22001
253 5 1 -0.60000 14.13986 3.56672 36.77501
254 5 15 0.00000 12.91321 3.29218 34.83501
255 5 15 0.00000 12.66060 2.93376 33.38101
256 5 15 0.00000 12.36833 2.53102 31.94701
257 5 15 0.00000 12.09535 2.10894 30.51401
258 5 15 0.00000 11.85300 1.72125 29.06401
259 5 15 0.00000 11.63261 1.40426 27.59201
260 5 15 0.00000 11.43086 1.16097 26.10201
261 5 15 0.00000 11.25999 0.97362 24.59901
262 5 15 0.00000 11.14230 0.82616 23.08501
263 5 15 0.00000 11.09301 0.71806 21.56401
264 5 15 0.00000 11.10262 0.66280 20.03801
265 5 15 0.00000 11.14121 0.67668 18.51001
266 5 15 0.00000 11.17462 0.75932 16.98401
267 5 15 0.00000 11.18645 0.88937 15.46001
268 5 15 0.00000 11.18438 1.03870 13.93501
269 5 15 0.00000 11.23168 1.10207 12.41001
270 5 16 0.00000 11.19413 1.31809 10.88601
271 6 16 0.40000 -18.58327 -20.64527 44.22878
272 6 16 0.40000 -20.62373 -21.12630 43.11878
273 6 16 0.40000 -18.84646 -20.04773 41.94178
274 6 8 -0.50000 -19.16431 -21.06814 42.94278
275 6 15 0.30000 -18.66008 -22.38803 42.55278
276 6 15 0.40000 -18.27149 -23.75597 41.95478
277 6 3 -0.80000 -18.08780 -24.74830 41.06978
278 6 30 1.70000 -17.94700 -24.11939 39.53778
279 6 2 -0.80000 -16.47485 -23.87123 39.32178
280 6 2 -0.80000 -18.90539 -22.93619 39.54078
281 6 3 -0.70000 -18.47631 -25.34625 38.56078
282 6 15 0.40000 -18.82316 -25.07359 37.27078
283 6 14 0.30000 -19.45204 -24.49119 36.07778
284 6 4 -0.70000 -19.03264 -24.67071 34.65778
285 6 12 0.70000 -19.85952 -25.37554 33.73678
286 6 1 -0.70000 -20.73423 -26.14857 34.11778
287 6 15 0.00000 -19.69800 -25.16648 32.18078
288 6 15 0.00000 -19.76578 -25.08384 30.34678
289 6 15 0.00000 -19.86187 -25.01793 28.50078
290 6 15 0.00000 -19.93235 -24.94476 26.64578
291 6 15 0.00000 -19.96377 -24.86381 24.78678
292 6 15 0.00000 -19.95588 -24.77790 22.92778
293 6 15 0.00000 -19.91048 -24.69075 21.07278
294 6 15 0.00000 -19.83037 -24.60261 19.22878
295 6 15 0.00000 -19.71980 -24.52167 17.40278
296 6 15 0.00000 -19.58055 -24.45164 15.60578
297 6 15 0.00000 -19.41290 -24.39751 13.84978
298 6 15 0.00000 -19.21403 -24.35903 12.15278
299 6 15 0.00000 -18.99034 -24.35168 10.51778
300 6 15 0.00000 -18.74888 -24.37611 8.93378
301 6 15 0.00000 -18.50156 -24.42628 7.38878
302 6 15 0.00000 -18.28375 -24.39320 5.71478
303 6 16 0.00000 -18.01280 -24.50088 4.25978
304 6 15 0.50000 -19.97707 -23.20866 36.45778
305 6 4 -0.70000 -20.38667 -22.13584 37.14778
306 6 12 0.80000 -20.57851 -20.95822 36.52178
307 6 1 -0.60000 -21.06334 -19.95677 37.07678
308 6 15 0.00000 -20.22903 -20.89697 35.13678
309 6 15 0.00000 -19.79311 -20.94438 33.68278
310 6 15 0.00000 -19.29920 -21.00502 32.24878
311 6 15 0.00000 -18.79772 -21.03942 30.81578
312 6 15 0.00000 -18.34116 -21.06367 29.36578
313 6 15 0.00000 -17.95709 -21.10295 27.89378
314 6 15 0.00000 -17.64652 -21.16163 26.40378
315 6 15 0.00000 -17.39985 -21.22038 24.90078
316 6 15 0.00000 -17.21384 -21.25192 23.38678
317 6 15 0.00000 -17.09540 -21.24269 21.86578
318 6 15 0.00000 -17.05171 -21.20752 20.33978
319 6 15 0.00000 -17.08254 -21.18047 18.81178
320 6 15 0.00000 -17.17102 -21.19127 17.28578
321 6 15 0.00000 -17.29053 -21.24391 15.76178
322 6 15 0.00000 -17.42017 -21.31805 14.23678
323 6 15 0.00000 -17.49853 -21.30736 12.71178
324 6 16 0.00000 -17.66933 -21.44484 11.18778
325 7 16 0.40000 -1.10813 26.39404 44.22448
326 7 16 0.40000 -2.21677 28.17331 43.11448
327 7 16 0.40000 -0.62622 26.83459 41.93748
328 7 8 -0.50000 -1.69469 26.80922 42.93848
329 7 15 0.30000 -2.78384 25.90916 42.54848
330 7 15 0.40000 -3.95552 25.10329 41.95048
331 7 3 -0.80000 -4.83690 24.61174 41.06548
332 7 30 1.70000 -4.19600 24.67958 39.53348
333 7 2 -0.80000 -3.48984 23.36424 39.31748
334 7 2 -0.80000 -3.38167 25.96618 39.53648
335 7 3 -0.70000 -5.52773 24.78849 38.55648
336 7 15 0.40000 -5.38038 25.20436 37.26648
337 7 14 0.30000 -5.02984 25.98653 36.07348
338 7 4 -0.70000 -5.06572 25.53173 34.65348
339 7 12 0.70000 -5.99808 26.08961 33.73248
340 7 1 -0.70000 -7.01035 26.67098 34.11348
341 7 15 0.00000 -5.74833 26.00347 32.17648
342 7 15 0.00000 -5.69171 26.09414 30.34248
343 7 15 0.00000 -5.66002 26.20626 28.49648
344 7 15 0.00000 -5.61325 26.29645 26.64148
345 7 15 0.00000 -5.54661 26.35212 24.78248
346 7 15 0.00000 -5.46269 26.37213 22.92348
347 7 15 0.00000 -5.36560 26.35700 21.06848
348 7 15 0.00000 -5.25646 26.30931 19.22448
349 7 15 0.00000 -5.14439 26.23045 17.39848
350 7 15 0.00000 -5.03348 26.12094 15.60148
351 7 15 0.00000 -4.92855 25.97942 13.84548
352 7 15 0.00000 -4.82846 25.80331 12.14848
353 7 15 0.00000 -4.74993 25.59373 10.51348
354 7 15 0.00000 -4.69581 25.35716 8.92948
355 7 15 0.00000 -4.66420 25.10679 7.38448
356 7 15 0.00000 -4.56317 24.91101 5.71048
357 7 16 0.00000 -4.57849 24.61985 4.25548
358 7 15 0.50000 -3.98273 26.89433 36.45348
359 7 4 -0.70000 -3.09738 27.62567 37.14348
360 7 12 0.80000 -2.04306 28.18424 36.51748
361 7 1 -0.60000 -1.24940 28.96402 37.07248
362 7 15 0.00000 -1.87321 27.87274 35.13248
363 7 15 0.00000 -1.77863 27.44457 33.67848
364 7 15 0.00000 -1.67805 26.95722 32.24448
365 7 15 0.00000 -1.55017 26.47110 30.81148
366 7 15 0.00000 -1.42706 26.03078 29.36148
367 7 15 0.00000 -1.34138 25.65433 27.88948
368 7 15 0.00000 -1.29760 25.34132 26.39948
369 7 15 0.00000 -1.27433 25.08882 24.89648
370 7 15 0.00000 -1.24470 24.90250 23.38248
371 7 15 0.00000 -1.19805 24.79323 21.86148
372 7 15 0.00000 -1.15075 24.76309 20.33548
373 7 15 0.00000 -1.13499 24.80096 18.80748
374 7 15 0.00000 -1.17354 24.88133 17.28148
375 7 15 0.00000 -1.26165 24.97771 15.75748
376 7 15 0.00000 -1.37337 25.07682 14.23248
377 7 15 0.00000 -1.38831 25.15447 12.70748
378 7 16 0.00000 -1.57322 25.27231 11.18348
379 8 16 0.40000 -22.79728 28.07346 45.93304
380 8 16 0.40000 -23.01510 25.98840 44.82304
381 8 16 0.40000 -23.44816 28.02174 43.64604
382 8 8 -0.50000 -22.58936 27.38556 44.64704
383 8 15 0.30000 -21.17704 27.42697 44.25704
384 8 15 0.40000 -19.75744 27.34336 43.65904
385 8 3 -0.80000 -18.75998 27.18999 42.77404
386 8 30 1.70000 -19.30743 27.53005 41.24204
387 8 2 -0.80000 -19.05690 29.00180 41.02604
388 8 2 -0.80000 -20.74026 27.01481 41.24504
389 8 3 -0.70000 -18.32334 26.62621 40.26504
390 8 15 0.40000 -18.69502 26.38851 38.97504
391 8 14 0.30000 -19.45204 25.98653 37.78204
392 8 4 -0.70000 -19.14441 26.32341 36.36204
393 8 12 0.70000 -18.75123 25.31052 35.44104
394 8 1 -0.70000 -18.30941 24.23002 35.82204
395 8 15 0.00000 -18.89543 25.53189 33.88504
396 8 15 0.00000 -18.99579 25.49511 32.05104
397 8 15 0.00000 -19.08966 25.42608 30.20504
398 8 15 0.00000 -19.18197 25.38363 28.35004
399 8 15 0.00000 -19.26875 25.38062 26.49104
400 8 15 0.00000 -19.34726 25.41637 24.63204
401 8 15 0.00000 -19.41460 25.48794 22.77704
402 8 15 0.00000 -19.47144 25.59261 20.93304
403 8 15 0.00000 -19.51145 25.72367 19.10704
404 8 15 0.00000 -19.53172 25.87821 17.31004
405 8 15 0.00000 -19.52761 26.05434 15.55404
406 8 15 0.00000 -19.49845 26.25479 13.85704
407 8 15 0.00000 -19.43171 26.46842 12.22204
408 8 15 0.00000 -19.32912 26.68836 10.63804
409 8 15 0.00000 -19.20030 26.90536 9.09304
410 8 15 0.00000 -19.15980 27.12191 7.41904
411 8 16 0.00000 -18.96889 27.34229 5.96404
412 8 15 0.50000 -20.83594 25.91318 38.16204
413 8 4 -0.70000 -21.98380 25.87976 38.85204
414 8 12 0.80000 -23.15890 26.08646 38.22604
415 8 1 -0.60000 -24.26416 25.95850 38.78104
416 8 15 0.00000 -23.10164 26.43661 36.84104
417 8 15 0.00000 -22.91331 26.83260 35.38704
418 8 15 0.00000 -22.69339 27.27898 33.95304
419 8 15 0.00000 -22.49575 27.74116 32.52004
420 8 15 0.00000 -22.32249 28.16426 31.07004
421 8 15 0.00000 -22.15890 28.51397 29.59804
422 8 15 0.00000 -22.00122 28.78788 28.10804
423 8 15 0.00000 -21.86451 29.00144 26.60504
424 8 15 0.00000 -21.77346 29.16668 25.09104
425 8 15 0.00000 -21.74317 29.28156 23.57004
426 8 15 0.00000 -21.76199 29.33440 22.04404
427 8 15 0.00000 -21.79768 29.31420 20.51604
428 8 15 0.00000 -21.81663 29.22709 18.99004
429 8 15 0.00000 -21.80628 29.09691 17.46604
430 8 15 0.00000 -21.77898 28.95009 15.94104
431 8 15 0.00000 -21.81488 28.87962 14.41604
432 8 16 0.00000 -21.74132 28.67307 12.89204
433 9 16 0.40000 -9.55461 8.67823 45.92589
434 9 16 0.40000 -8.80132 10.63461 44.81589
435 9 16 0.40000 -8.91272 8.55865 43.63889
436 9 8 -0.50000 -9.57621 9.39654 44.63989
437 9 15 0.30000 -10.95058 9.72435 44.24989
438 9 15 0.40000 -12.29942 10.17477 43.65189
439 9 3 -0.80000 -13.22253 10.58261 42.76689
440 9 30 1.70000 -12.78253 10.11171 41.23489
441 9 2 -0.80000 -13.40768 8.75599 41.01889
442 9 2 -0.80000 -11.26496 10.23604 41.23789
443 9 3 -0.70000 -13.49728 11.24064 40.25789
444 9 15 0.40000 -13.07652 11.37335 38.96789
445 9 14 0.30000 -12.24094 11.56432 37.77489
446 9 4 -0.70000 -12.62569 11.31917 36.35489
447 9 12 0.70000 -12.74153 12.39950 35.43389
448 9 1 -0.70000 -12.88672 13.55778 35.81489
449 9 15 0.00000 -12.65995 12.14822 33.87789
450 9 15 0.00000 -12.55348 12.15760 32.04389
451 9 15 0.00000 -12.44487 12.19980 30.19789
452 9 15 0.00000 -12.34469 12.21674 28.34289
453 9 15 0.00000 -12.26012 12.19705 26.48389
454 9 15 0.00000 -12.19362 12.14209 24.62489
455 9 15 0.00000 -12.14725 12.05545 22.76989
456 9 15 0.00000 -12.11963 11.93959 20.92589
457 9 15 0.00000 -12.11513 11.80263 19.09989
458 9 15 0.00000 -12.13581 11.64815 17.30289
459 9 15 0.00000 -12.18564 11.47917 15.54689
460 9 15 0.00000 -12.26600 11.29323 13.84989
461 9 15 0.00000 -12.38607 11.10435 12.21489
462 9 15 0.00000 -12.54239 10.91872 10.63089
463 9 15 0.00000 -12.72328 10.74275 9.08589
464 9 15 0.00000 -12.81878 10.54421 7.41189
465 9 16 0.00000 -13.06049 10.38116 5.95689
466 9 15 0.50000 -10.88569 11.27474 38.15489
467 9 4 -0.70000 -9.76873 11.00808 38.84489
468 9 12 0.80000 -8.68801 10.50250 38.21889
469 9 1 -0.60000 -7.58757 10.33821 38.77389
470 9 15 0.00000 -8.83448 10.17934 36.83389
471 9 15 0.00000 -9.11943 9.84605 35.37989
472 9 15 0.00000 -9.44802 9.47235 33.94589
473 9 15 0.00000 -9.75919 9.07759 32.51289
474 9 15 0.00000 -10.03667 8.71420 31.06289
475 9 15 0.00000 -10.28568 8.41916 29.59089
476 9 15 0.00000 -10.50926 8.19577 28.10089
477 9 15 0.00000 -10.69686 8.02518 26.59789
478 9 15 0.00000 -10.82780 7.88935 25.08389
479 9 15 0.00000 -10.88696 7.78632 23.56289
480 9 15 0.00000 -10.88255 7.73041 22.03689
481 9 15 0.00000 -10.84283 7.74062 20.50889
482 9 15 0.00000 -10.80186 7.81978 18.98289
483 9 15 0.00000 -10.77794 7.94816 17.45889
484 9 15 0.00000 -10.76607 8.09703 15.93389
485 9 15 0.00000 -10.71306 8.15571 14.40889
486 9 16 0.00000 -10.73028 8.37429 12.88489
487 10 16 0.40000 -28.41499 -6.53672 45.95097
488 10 16 0.40000 -29.69487 -8.19708 44.84097
489 10 16 0.40000 -28.99614 -6.23908 43.66397
490 10 8 -0.50000 -28.59911 -7.23137 44.66497
491 10 15 0.30000 -27.37528 -7.93747 44.27497
492 10 15 0.40000 -26.21087 -8.75380 43.67697
493 10 3 -0.80000 -25.44237 -9.40793 42.79197
494 10 30 1.70000 -25.72984 -8.83112 41.25997
495 10 2 -0.80000 -24.74406 -7.70994 41.04397
496 10 2 -0.80000 -27.21986 -8.51756 41.26297
497 10 3 -0.70000 -25.36666 -10.11699 40.28297
498 10 15 0.40000 -25.80780 -10.12420 38.99297
499 10 14 0.30000 -26.66315 -10.06899 37.79997
500 10 4 -0.70000 -26.22447 -9.94373 36.37997
501 10 12 0.70000 -26.42149 -11.01224 35.45897
502 10 1 -0.70000 -26.61260 -12.16383 35.83997
503 10 15 0.00000 -26.42803 -10.74813 33.90297
504 10 15 0.00000 -26.53276 -10.72675 32.06897
505 10 15 0.00000 -26.64889 -10.73623 30.22297
506 10 15 0.00000 -26.74974 -10.72391 28.36797
507 10 15 0.00000 -26.82518 -10.68092 26.50897
508 10 15 0.00000 -26.87325 -10.60928 24.64997
509 10 15 0.00000 -26.89299 -10.51301 22.79497
510 10 15 0.00000 -26.88643 -10.39409 20.95097
511 10 15 0.00000 -26.85169 -10.26153 19.12497
512 10 15 0.00000 -26.78782 -10.11936 17.32797
513 10 15 0.00000 -26.69187 -9.97160 15.57197
514 10 15 0.00000 -26.56182 -9.81629 13.87497
515 10 15 0.00000 -26.39289 -9.66950 12.23997
516 10 15 0.00000 -26.19012 -9.53614 10.65597
517 10 15 0.00000 -25.96657 -9.41906 9.11097
518 10 15 0.00000 -25.81842 -9.25600 7.43697
519 10 16 0.00000 -25.54025 -9.16864 5.98197
520 10 15 0.50000 -27.87956 -9.40498 38.17997
521 10 4 -0.70000 -28.87411 -8.83090 38.86997
522 10 12 0.80000 -29.76580 -8.03814 38.24397
523 10 1 -0.60000 -30.77371 -7.56689 38.79897
524 10 15 0.00000 -29.53326 -7.77017 36.85897
525 10 15 0.00000 -29.16510 -7.53197 35.40497
526 10 15 0.00000 -28.74360 -7.26747 33.97097
527 10 15 0.00000 -28.33278 -6.97783 32.53797
528 10 15 0.00000 -27.96321 -6.70866 31.08797
529 10 15 0.00000 -27.64040 -6.49687 29.61597
530 10 15 0.00000 -27.36241 -6.34650 28.12597
531 10 15 0.00000 -27.13395 -6.23649 26.62297
532 10 15 0.00000 -26.96972 -6.14363 25.10897
533 10 15 0.00000 -26.88363 -6.06175 23.58797
534 10 15 0.00000 -26.87191 -6.00690 22.06197
535 10 15 0.00000 -26.91290 -6.00536 20.53397
536 10 15 0.00000 -26.97474 -6.06956 19.00797
537 10 15 0.00000 -27.03427 -6.18579 17.48397
538 10 15 0.00000 -27.08810 -6.32509 15.95897
539 10 15 0.00000 -27.15565 -6.36622 14.43397
540 10 16 0.00000 -27.20146 -6.58064 12.90997
541 11 16 0.40000 12.12349 -7.22525 44.76392
542 11 16 0.40000 10.12799 -6.58270 43.65392
543 11 16 0.40000 12.20693 -6.57766 42.47692
544 11 8 -0.50000 11.40752 -7.28704 43.47792
545 11 15 0.30000 11.15718 -8.67761 43.08792
546 11 15 0.40000 10.78301 -10.04956 42.48992
547 11 3 -0.80000 10.42751 -10.99406 41.60492
548 11 30 1.70000 10.87303 -10.52837 40.07292
549 11 2 -0.80000 12.26163 -11.07663 39.85692
550 11 2 -0.80000 10.66390 -9.02015 40.07592
551 11 3 -0.70000 9.78590 -11.30523 39.09592
552 11 15 0.40000 9.62984 -10.89257 37.80592
553 11 14 0.30000 9.39237 -10.06899 36.61292
554 11 4 -0.70000 9.65868 -10.43940 35.19292
555 11 12 0.70000 8.58653 -10.61556 34.27192
556 11 1 -0.70000 7.43820 -10.82539 34.65292
557 11 15 0.00000 8.83285 -10.52004 32.71592
558 11 15 0.00000 8.81752 -10.41426 30.88192
559 11 15 0.00000 8.76931 -10.30818 29.03592
560 11 15 0.00000 8.74678 -10.20911 27.18092
561 11 15 0.00000 8.76171 -10.12357 25.32192
562 11 15 0.00000 8.81285 -10.05410 23.46292
563 11 15 0.00000 8.89676 -10.00295 21.60792
564 11 15 0.00000 9.01089 -9.96888 19.76392
565 11 15 0.00000 9.14738 -9.95672 17.93792
566 11 15 0.00000 9.30278 -9.96871 16.14092
567 11 15 0.00000 9.47429 -10.00900 14.38492
568 11 15 0.00000 9.66444 -10.07883 12.68792
569 11 15 0.00000 9.85974 -10.18813 11.05292
570 11 15 0.00000 10.05384 -10.33381 9.46892
571 11 15 0.00000 10.23966 -10.50456 7.92392
572 11 15 0.00000 10.44323 -10.58879 6.24992
573 11 16 0.00000 10.61957 -10.82099 4.79492
574 11 15 0.50000 9.60560 -8.69965 36.99292
575 11 4 -0.70000 9.80929 -7.56951 37.68292
576 11 12 0.80000 10.25355 -6.46217 37.05692
577 11 1 -0.60000 10.35596 -5.35425 37.61192
578 11 15 0.00000 10.58441 -6.59032 35.67192
579 11 15 0.00000 10.93313 -6.85615 34.21792
580 11 15 0.00000 11.32465 -7.16329 32.78392
581 11 15 0.00000 11.73621 -7.45187 31.35092
582 11 15 0.00000 12.11457 -7.70856 29.90092
583 11 15 0.00000 12.42309 -7.94066 28.42892
584 11 15 0.00000 12.65866 -8.15138 26.93892
585 11 15 0.00000 12.83949 -8.32913 25.43592
586 11 15 0.00000 12.98244 -8.45226 23.92192
587 11 15 0.00000 13.08861 -8.50555 22.40092
588 11 15 0.00000 13.14419 -8.49802 20.87492
589 11 15 0.00000 13.13177 -8.45894 19.34692
590 11 15 0.00000 13.05044 -8.42246 17.82092
591 11 15 0.00000 12.92092 -8.40577 16.29692
592 11 15 0.00000 12.77162 -8.40226 14.77192
593 11 15 0.00000 12.71006 -8.35261 13.24692
594 11 16 0.00000 12.49279 -8.38205 11.72292
595 12 16 0.40000 -4.44147 -21.17877 43.79886
596 12 16 0.40000 -2.71535 -19.98906 42.68886
597 12 16 0.40000 -3.97911 -21.63980 41.51186
598 12 8 -0.50000 -4.05384 -20.57364 42.51286
599 12 15 0.30000 -5.00329 -19.52726 42.12286
600 12 15 0.40000 -5.86246 -18.39409 41.52486
601 12 3 -0.80000 -6.39424 -17.53638 40.63986
602 12 30 1.70000 -6.29684 -18.17346 39.10786
603 12 2 -0.80000 -7.57813 -18.93967 38.89186
604 12 2 -0.80000 -4.97397 -18.92743 39.11086
605 12 3 -0.70000 -6.24960 -16.83812 38.13086
606 12 15 0.40000 -5.82738 -16.96608 36.84086
607 12 14 0.30000 -5.02984 -17.28009 35.64786
608 12 4 -0.70000 -5.48581 -17.26527 34.22786
609 12 12 0.70000 -4.97162 -16.30812 33.30686
610 12 1 -0.70000 -4.43767 -15.27005 33.68786
611 12 15 0.00000 -5.04612 -16.56159 31.75086
612 12 15 0.00000 -4.95294 -16.61395 29.91686
613 12 15 0.00000 -4.83947 -16.64042 28.07086
614 12 15 0.00000 -4.74721 -16.68298 26.21586
615 12 15 0.00000 -4.68852 -16.74697 24.35686
616 12 15 0.00000 -4.66465 -16.82987 22.49786
617 12 15 0.00000 -4.67528 -16.92756 20.64286
618 12 15 0.00000 -4.71788 -17.03879 18.79886
619 12 15 0.00000 -4.79147 -17.15439 16.97286
620 12 15 0.00000 -4.89574 -17.27024 15.17586
621 12 15 0.00000 -5.03225 -17.38159 13.41986
622 12 15 0.00000 -5.20355 -17.48972 11.72286
623 12 15 0.00000 -5.40927 -17.57786 10.08786
624 12 15 0.00000 -5.64309 -17.64285 8.50386
625 12 15 0.00000 -5.89173 -17.68600 6.95886
626 12 15 0.00000 -6.08263 -17.79598 5.28486
627 12 16 0.00000 -6.37419 -17.79414 3.82986
628 12 15 0.50000 -4.07459 -18.28411 36.02786
629 12 4 -0.70000 -3.30311 -19.13471 36.71786
630 12 12 0.80000 -2.69639 -20.16208 36.09186
631 12 1 -0.60000 -1.88076 -20.91885 36.64686
632 12 15 0.00000 -2.99972 -20.34615 34.70686
633 12 15 0.00000 -3.42306 -20.46042 33.25286
634 12 15 0.00000 -3.90523 -20.58343 31.81886
635 12 15 0.00000 -4.38492 -20.73364 30.38586
636 12 15 0.00000 -4.81908 -20.87697 28.93586
637 12 15 0.00000 -5.19117 -20.97996 27.46386
638 12 15 0.00000 -5.50182 -21.03816 25.97386
639 12 15 0.00000 -5.75297 -21.07308 24.47086
640 12 15 0.00000 -5.93773 -21.11130 22.95686
641 12 15 0.00000 -6.04471 -21.16295 21.43586
642 12 15 0.00000 -6.07264 -21.21159 19.90986
643 12 15 0.00000 -6.03409 -21.22558 18.38186
644 12 15 0.00000 -5.95558 -21.18336 16.85586
645 12 15 0.00000 -5.86337 -21.09089 15.33186
646 12 15 0.00000 -5.76954 -20.97470 13.80686
647 12 15 0.00000 -5.69266 -20.95619 12.28186
648 12 16 0.00000 -5.58350 -20.76603 10.75786
649 13 16 0.40000 -23.32692 -19.38140 44.93923