created with groupy

14592 atoms
11904 bonds
10368 angles
6016 dihedrals
384 impropers

58 atom types
54 bond types
55 angle types
43 dihedral types
3 improper types

-26.532998 26.532998 xlo xhi
-26.532998 26.532998 ylo yhi
-46.155853 46.155853 zlo zhi

Masses

1 15.9994
2 15.9994
3 15.9994
4 15.9994
5 15.9994
6 14.0067
7 14.0067
8 14.0067
9 14.0067
10 14.0067
11 14.0067
12 12.0110
13 12.0110
14 13.0190
15 14.0270
16 15.0350
17 16.0430
18 14.0270
19 13.0190
20 1.0080
21 1.0080
22 999.0   # dummy, this type not in this system
23 32.0600
24 63.5460
25 63.5460
26 55.8470
27 65.3700
28 24.3050
29 40.0800
30 30.9738
31 39.9480
32 18.9984
33 35.4350
34 79.9040
35 15.0350
36 15.9994
37 22.9898
38 35.4350
39 12.0110
40 35.4350
41 1.0080
42 32.0600
43 15.0350
44 15.9994
45 12.0110
46 35.4350
47 18.9984
48 12.0110
49 14.0270
50 15.9994
51 12.0110
52 15.9994
53 14.0067
54 28.0800
55 999.0   # dummy, this type not in this system
56 999.0   # dummy, this type not in this system
57 15.9994
58 1.0080

Atoms

1 1 16 0.40000 -11.97065 20.02133 29.02502
2 1 16 0.40000 -11.52992 20.92539 26.87667
3 1 16 0.40000 -13.41310 19.49345 27.20915
4 1 8 -0.50000 -12.60663 20.55812 27.80944
5 1 15 0.30000 -13.41400 21.74055 28.12327
6 1 15 0.40000 -14.30717 22.99452 28.22154
7 1 3 -0.80000 -15.22619 23.92507 27.91961
8 1 30 1.70000 -16.36723 23.28060 26.89732
9 1 2 -0.80000 -17.45494 22.72498 27.78255
10 1 2 -0.80000 -15.56998 22.32834 26.01637
11 1 3 -0.70000 -16.92183 24.59197 26.05317
12 1 15 0.40000 -17.61491 24.39933 24.89503
13 1 14 0.30000 -18.00741 23.96404 23.54804
14 1 4 -0.70000 -19.36244 24.05024 22.93080
15 1 12 0.70000 -19.60657 24.91483 21.82551
16 1 1 -0.70000 -18.86156 25.85623 21.56749
17 1 15 0.00000 -20.83875 24.67619 20.86859
18 1 15 0.00000 -22.14560 24.60986 19.57912
19 1 15 0.00000 -23.44524 24.56590 18.26371
20 1 15 0.00000 -24.76727 24.50939 16.95973
21 1 15 0.00000 -26.11672 24.43698 15.68020
22 1 15 0.00000 -27.49115 24.35136 14.42844
23 1 15 0.00000 -28.88697 24.25655 13.20640
24 1 15 0.00000 -30.29716 24.15338 12.01675
25 1 15 0.00000 -31.71492 24.05077 10.86242
26 1 15 0.00000 -33.13142 23.95272 9.75003
27 1 15 0.00000 -34.53829 23.86417 8.68822
28 1 15 0.00000 -35.92396 23.78427 7.69103
29 1 15 0.00000 -37.28421 23.72951 6.75827
30 1 15 0.00000 -38.62269 23.70202 5.87756
31 1 15 0.00000 -39.93969 23.69843 5.03127
32 1 15 0.00000 -41.32142 23.61978 4.06408
33 1 16 0.00000 -42.59518 23.66736 3.30427
34 1 15 0.50000 -17.19919 22.82254 23.21833
35 1 4 -0.70000 -16.26593 21.86140 23.21302
36 1 12 0.80000 -16.43809 20.75154 22.46868
37 1 1 -0.60000 -15.56611 19.87614 22.32969
38 1 15 0.00000 -17.68712 20.61736 21.78602
39 1 15 0.00000 -19.05941 20.57094 21.13713
40 1 15 0.00000 -20.45664 20.52514 20.54583
41 1 15 0.00000 -21.85434 20.45208 19.95655
42 1 15 0.00000 -23.23386 20.37866 19.32167
43 1 15 0.00000 -24.58448 20.33534 18.62181
44 1 15 0.00000 -25.90316 20.32662 17.85960
45 1 15 0.00000 -27.18975 20.33155 17.04230
46 1 15 0.00000 -28.44098 20.32281 16.16929
47 1 15 0.00000 -29.64743 20.28859 15.23609
48 1 15 0.00000 -30.80503 20.24493 14.24116
49 1 15 0.00000 -31.91654 20.22506 13.19207
50 1 15 0.00000 -32.99427 20.25444 12.10843
51 1 15 0.00000 -34.05618 20.33129 11.01021
52 1 15 0.00000 -35.11526 20.43131 9.90737
53 1 15 0.00000 -36.19581 20.43753 8.82836
54 1 16 0.00000 -37.23625 20.60819 7.70631
55 2 16 0.40000 12.69137 0.17956 30.79087
56 2 16 0.40000 11.42835 -1.81196 30.53473
57 2 16 0.40000 10.55884 0.26697 29.74143
58 2 8 -0.50000 11.77410 -0.53678 29.88772
59 2 15 0.30000 12.41370 -0.79564 28.59452
60 2 15 0.40000 12.88576 -1.17822 27.17654
61 2 3 -0.80000 12.85860 -1.53951 25.88410
62 2 30 1.70000 11.41033 -1.09114 25.20302
63 2 2 -0.80000 11.62236 0.29407 24.64474
64 2 2 -0.80000 10.40252 -1.29101 26.32679
65 2 3 -0.70000 11.19963 -2.18302 23.97693
66 2 15 0.40000 9.96421 -2.33655 23.42113
67 2 14 0.30000 8.52559 -2.56896 23.23597
68 2 4 -0.70000 7.71927 -2.30493 22.00932
69 2 12 0.70000 7.14830 -3.37813 21.26703
70 2 1 -0.70000 7.56713 -4.52773 21.37127
71 2 15 0.00000 5.92906 -3.13124 20.29573
72 2 15 0.00000 4.49529 -3.14591 19.14722
73 2 15 0.00000 3.05227 -3.19347 17.99105
74 2 15 0.00000 1.60736 -3.21539 16.82354
75 2 15 0.00000 0.16867 -3.19994 15.64313
76 2 15 0.00000 -1.25911 -3.14837 14.45060
77 2 15 0.00000 -2.67152 -3.06415 13.24699
78 2 15 0.00000 -4.06421 -2.94981 12.03792
79 2 15 0.00000 -5.42877 -2.81325 10.82450
80 2 15 0.00000 -6.75554 -2.65793 9.61245
81 2 15 0.00000 -8.03284 -2.48667 8.40673
82 2 15 0.00000 -9.24645 -2.29695 7.21847
83 2 15 0.00000 -10.38756 -2.10232 6.04232
84 2 15 0.00000 -11.46642 -1.90912 4.87327
85 2 15 0.00000 -12.49957 -1.72435 3.71173
86 2 15 0.00000 -13.68639 -1.52130 2.52808
87 2 16 0.00000 -14.61158 -1.34640 1.38114
88 2 15 0.50000 7.89261 -2.34733 24.50686
89 2 4 -0.70000 7.65002 -2.13671 25.80748
90 2 12 0.80000 6.44569 -1.68566 26.20948
91 2 1 -0.60000 6.11723 -1.57646 27.40370
92 2 15 0.00000 5.50354 -1.35560 25.18599
93 2 15 0.00000 4.60232 -1.00852 24.01393
94 2 15 0.00000 3.74377 -0.61889 22.82437
95 2 15 0.00000 2.87362 -0.20910 21.64917
96 2 15 0.00000 1.96937 0.16767 20.48646
97 2 15 0.00000 1.03203 0.47476 19.32761
98 2 15 0.00000 0.06670 0.70903 18.17294
99 2 15 0.00000 -0.93056 0.88877 17.03432
100 2 15 0.00000 -1.97271 1.03096 15.92911
101 2 15 0.00000 -3.06694 1.13681 14.87127
102 2 15 0.00000 -4.20579 1.19243 13.85552
103 2 15 0.00000 -5.36752 1.18025 12.86219
104 2 15 0.00000 -6.52630 1.09914 11.86857
105 2 15 0.00000 -7.67055 0.96973 10.86181
106 2 15 0.00000 -8.80681 0.82045 9.84468
107 2 15 0.00000 -9.97357 0.75920 8.86143
108 2 16 0.00000 -11.08732 0.54175 7.82079
109 3 16 0.40000 25.26753 -1.75848 30.92731
110 3 16 0.40000 24.78514 -3.79143 29.80420
111 3 16 0.40000 23.17084 -2.03068 29.83806
112 3 8 -0.50000 24.60066 -2.33306 29.74606
113 3 15 0.30000 25.18880 -1.80891 28.51001
114 3 15 0.40000 25.65569 -1.39966 27.09778
115 3 3 -0.80000 25.66007 -1.20098 25.77031
116 3 30 1.70000 24.09937 -1.06972 25.21410
117 3 2 -0.80000 23.75792 0.39851 25.27052
118 3 2 -0.80000 23.31968 -2.04590 26.08452
119 3 3 -0.70000 24.19951 -1.58040 23.64278
120 3 15 0.40000 23.06194 -1.93134 22.97830
121 3 14 0.30000 21.79209 -2.56896 22.60571
122 3 4 -0.70000 20.85268 -2.14688 21.52687
123 3 12 0.70000 20.64819 -2.96301 20.37757
124 3 1 -0.70000 21.45738 -3.82592 20.04826
125 3 15 0.00000 19.35035 -2.80467 19.49356
126 3 15 0.00000 17.93281 -2.87369 18.32703
127 3 15 0.00000 16.51785 -2.97077 17.13970
128 3 15 0.00000 15.09107 -3.04235 15.95204
129 3 15 0.00000 13.65572 -3.07499 14.76793
130 3 15 0.00000 12.21666 -3.06840 13.58793
131 3 15 0.00000 10.77936 -3.02432 12.41196
132 3 15 0.00000 9.34922 -2.94556 11.24448
133 3 15 0.00000 7.93696 -2.83622 10.08404
134 3 15 0.00000 6.55326 -2.69805 8.93522
135 3 15 0.00000 5.21039 -2.53124 7.80233
136 3 15 0.00000 3.92151 -2.33297 6.69764
137 3 15 0.00000 2.69929 -2.10942 5.61159
138 3 15 0.00000 1.53605 -1.86762 4.53625
139 3 15 0.00000 0.41895 -1.61957 3.46794
140 3 15 0.00000 -0.84941 -1.40228 2.37485
141 3 16 0.00000 -1.86138 -1.12973 1.32430
142 3 15 0.50000 21.22171 -3.11333 23.80708
143 3 4 -0.70000 21.02086 -3.53911 25.06134
144 3 12 0.80000 19.76970 -3.74876 25.51534
145 3 1 -0.60000 19.51703 -4.24868 26.62540
146 3 15 0.00000 18.69593 -3.40025 24.63804
147 3 15 0.00000 17.64270 -2.96366 23.63480
148 3 15 0.00000 16.61260 -2.46889 22.63576
149 3 15 0.00000 15.56561 -1.96694 21.65698
150 3 15 0.00000 14.49965 -1.51007 20.67385
151 3 15 0.00000 13.42814 -1.12544 19.66402
152 3 15 0.00000 12.35697 -0.81403 18.62691
153 3 15 0.00000 11.27683 -0.56649 17.58032
154 3 15 0.00000 10.17093 -0.38003 16.54591
155 3 15 0.00000 9.03323 -0.26174 15.53636
156 3 15 0.00000 7.87522 -0.21858 14.54189
157 3 15 0.00000 6.72191 -0.24982 13.53921
158 3 15 0.00000 5.59599 -0.33813 12.50909
159 3 15 0.00000 4.49987 -0.45683 11.44888
160 3 15 0.00000 3.41749 -0.58534 10.37191
161 3 15 0.00000 2.27783 -0.66384 9.35855
162 3 16 0.00000 1.23899 -0.83255 8.23472
163 4 16 0.40000 25.53475 8.80566 32.14882
164 4 16 0.40000 25.85426 7.59329 30.13510
165 4 16 0.40000 23.65174 8.21306 30.82224
166 4 8 -0.50000 25.04843 8.64950 30.76703
167 4 15 0.30000 25.19791 9.90063 30.01817
168 4 15 0.40000 25.26811 11.09679 29.04651
169 4 3 -0.80000 25.02718 11.89086 27.99148
170 4 30 1.70000 23.51073 11.58053 27.38613
171 4 2 -0.80000 22.57419 12.52063 28.10346
172 4 2 -0.80000 23.34324 10.07915 27.57663
173 4 3 -0.70000 23.63467 11.99491 25.78838
174 4 15 0.40000 22.69266 11.55442 24.90671
175 4 14 0.30000 21.79209 10.69754 24.12399
176 4 4 -0.70000 20.64132 11.13085 23.27989
177 4 12 0.70000 20.67656 10.97677 21.86433
178 4 1 -0.70000 21.73477 10.83193 21.25847
179 4 15 0.00000 19.34382 10.95966 21.01909
180 4 15 0.00000 17.96941 10.85416 19.80466
181 4 15 0.00000 16.60701 10.73850 18.55895
182 4 15 0.00000 15.22294 10.63724 17.32386
183 4 15 0.00000 13.81471 10.56014 16.10962
184 4 15 0.00000 12.38660 10.50924 14.91747
185 4 15 0.00000 10.94423 10.48566 13.74713
186 4 15 0.00000 9.49418 10.48746 12.60176
187 4 15 0.00000 8.04764 10.51686 11.47939
188 4 15 0.00000 6.61544 10.57499 10.38443
189 4 15 0.00000 5.20912 10.66494 9.32201
190 4 15 0.00000 3.84068 10.78866 8.30569
191 4 15 0.00000 2.52297 10.95159 7.32569
192 4 15 0.00000 1.25123 11.14885 6.37084
193 4 15 0.00000 0.01881 11.36754 5.43063
194 4 15 0.00000 -1.33821 11.50904 4.43599
195 4 16 0.00000 -2.48535 11.78349 3.53556
196 4 15 0.50000 21.66313 9.45552 24.83511
197 4 4 -0.70000 21.81871 8.43878 25.69351
198 4 12 0.80000 20.84736 7.51605 25.83676
199 4 1 -0.60000 20.97174 6.49008 26.52806
200 4 15 0.00000 19.63271 7.73768 25.11591
201 4 15 0.00000 18.38306 8.09600 24.33083
202 4 15 0.00000 17.12925 8.50658 23.58024
203 4 15 0.00000 15.85967 8.90547 22.84867
204 4 15 0.00000 14.59224 9.26397 22.08931
205 4 15 0.00000 13.34808 9.57803 21.27121
206 4 15 0.00000 12.13281 9.84978 20.39414
207 4 15 0.00000 10.93618 10.07366 19.47692
208 4 15 0.00000 9.74458 10.23404 18.53770
209 4 15 0.00000 8.55721 10.31677 17.58331
210 4 15 0.00000 7.38618 10.32628 16.60329
211 4 15 0.00000 6.25073 10.28527 15.58078
212 4 15 0.00000 5.16126 10.22605 14.51018
213 4 15 0.00000 4.10802 10.17122 13.40235
214 4 15 0.00000 3.06930 10.12301 12.27688
215 4 15 0.00000 1.96532 10.05716 11.22391
216 4 16 0.00000 0.97735 10.01997 10.04357
217 5 16 0.40000 26.70250 -5.65147 28.93007
218 5 16 0.40000 25.00942 -7.29810 29.15156
219 5 16 0.40000 24.61621 -5.34765 27.82926
220 5 8 -0.50000 25.61867 -6.34411 28.21189
221 5 15 0.30000 26.14267 -7.06322 27.04708
222 5 15 0.40000 26.47154 -7.89192 25.78813
223 5 3 -0.80000 26.32339 -8.55420 24.63006
224 5 30 1.70000 24.99666 -7.97435 23.81400
225 5 2 -0.80000 25.50372 -6.86375 22.92805
226 5 2 -0.80000 24.00417 -7.64493 24.92076
227 5 3 -0.70000 24.50444 -9.26402 22.90057
228 5 15 0.40000 23.25057 -9.26654 22.36525
229 5 14 0.30000 21.79209 -9.20221 22.20216
230 5 4 -0.70000 21.03123 -9.08163 20.92502
231 5 12 0.70000 20.20735 -10.14798 20.46362
232 5 1 -0.70000 20.35440 -11.29747 20.86969
233 5 15 0.00000 19.04852 -9.88382 19.42522
234 5 15 0.00000 17.61568 -9.86133 18.27569
235 5 15 0.00000 16.16606 -9.86957 17.12685
236 5 15 0.00000 14.72014 -9.85617 15.96045
237 5 15 0.00000 13.28846 -9.81237 14.77226
238 5 15 0.00000 11.87530 -9.74023 13.56349
239 5 15 0.00000 10.48425 -9.64376 12.33616
240 5 15 0.00000 9.11913 -9.52491 11.09647
241 5 15 0.00000 7.78633 -9.39273 9.84777
242 5 15 0.00000 6.49465 -9.25125 8.59676
243 5 15 0.00000 5.25494 -9.10452 7.34930
244 5 15 0.00000 4.08194 -8.95061 6.11591
245 5 15 0.00000 2.98098 -8.80562 4.89518
246 5 15 0.00000 1.94046 -8.67443 3.68355
247 5 15 0.00000 0.94272 -8.55974 2.48269
248 5 15 0.00000 -0.20102 -8.39827 1.25118
249 5 16 0.00000 -1.09555 -8.31388 0.07020
250 5 15 0.50000 21.26533 -8.52528 23.35508
251 5 4 -0.70000 21.11674 -7.94062 24.55129
252 5 12 0.80000 20.06056 -7.13841 24.78876
253 5 1 -0.60000 19.80198 -6.65644 25.90537
254 5 15 0.00000 19.18881 -6.87293 23.68709
255 5 15 0.00000 18.35631 -6.63867 22.43871
256 5 15 0.00000 17.57455 -6.37868 21.16386
257 5 15 0.00000 16.78656 -6.09344 19.89742
258 5 15 0.00000 15.95820 -5.82821 18.65042
259 5 15 0.00000 15.08179 -5.61988 17.42390
260 5 15 0.00000 14.16158 -5.47248 16.21913
261 5 15 0.00000 13.19828 -5.36491 15.04278
262 5 15 0.00000 12.18371 -5.27381 13.90694
263 5 15 0.00000 11.11156 -5.19285 12.82458
264 5 15 0.00000 9.98576 -5.13813 11.79434
265 5 15 0.00000 8.82282 -5.13615 10.80235
266 5 15 0.00000 7.64694 -5.19969 9.82773
267 5 15 0.00000 6.47373 -5.31527 8.85313
268 5 15 0.00000 5.30342 -5.45400 7.87381
269 5 15 0.00000 4.12464 -5.49440 6.90390
270 5 16 0.00000 2.95990 -5.70832 5.91989
271 6 16 0.40000 23.84382 10.34350 24.62496
272 6 16 0.40000 22.51983 12.30272 24.43654
273 6 16 0.40000 22.51737 10.68319 22.68027
274 6 8 -0.50000 22.55638 10.86371 24.13291
275 6 15 0.30000 21.43558 10.18983 24.79484
276 6 15 0.40000 20.11813 9.62425 25.36432
277 6 3 -0.80000 18.81846 9.31130 25.48514
278 6 30 1.70000 18.10953 9.25467 23.98294
279 6 2 -0.80000 18.24351 7.82810 23.51134
280 6 2 -0.80000 18.81200 10.36072 23.20726
281 6 3 -0.70000 16.52301 9.61758 24.28485
282 6 15 0.40000 15.71460 9.99735 23.25480
283 6 14 0.30000 15.15884 10.69754 22.08913
284 6 4 -0.70000 14.02151 10.25812 21.23011
285 6 12 0.70000 12.79660 10.98485 21.21409
286 6 1 -0.70000 12.48982 11.74998 22.12421
287 6 15 0.00000 11.79319 10.85230 20.00309
288 6 15 0.00000 10.47910 10.93039 18.72166
289 6 15 0.00000 9.14249 11.03433 17.44732
290 6 15 0.00000 7.80627 11.11385 16.15908
291 6 15 0.00000 6.47568 11.15567 14.85862
292 6 15 0.00000 5.15185 11.15917 13.55065
293 6 15 0.00000 3.83513 11.12565 12.24076
294 6 15 0.00000 2.53031 11.05787 10.93410
295 6 15 0.00000 1.23677 10.95894 9.64181
296 6 15 0.00000 -0.03993 10.83015 8.37415
297 6 15 0.00000 -1.29419 10.67110 7.14285
298 6 15 0.00000 -2.51224 10.47903 5.95950
299 6 15 0.00000 -3.70267 10.25826 4.83814
300 6 15 0.00000 -4.87471 10.01570 3.77257
301 6 15 0.00000 -6.03432 9.76392 2.75148
302 6 15 0.00000 -7.23719 9.55237 1.58565
303 6 16 0.00000 -8.36598 9.26958 0.66483
304 6 15 0.50000 16.24560 11.38711 21.45007
305 6 4 -0.70000 17.43381 11.93459 21.16161
306 6 12 0.80000 17.73277 12.28006 19.89404
307 6 1 -0.60000 18.76669 12.89271 19.57519
308 6 15 0.00000 16.77498 11.94171 18.88792
309 6 15 0.00000 15.70147 11.50334 17.90721
310 6 15 0.00000 14.63916 11.00575 16.94395
311 6 15 0.00000 13.59566 10.50411 15.96128
312 6 15 0.00000 12.54230 10.04834 14.96416
313 6 15 0.00000 11.45623 9.66244 13.97051
314 6 15 0.00000 10.33742 9.34685 12.98629
315 6 15 0.00000 9.20328 9.09458 11.99969
316 6 15 0.00000 8.07364 8.90604 10.99164
317 6 15 0.00000 6.95990 8.78985 9.95548
318 6 15 0.00000 5.85304 8.75117 8.90420
319 6 15 0.00000 4.73273 8.78530 7.86486
320 6 15 0.00000 3.58372 8.87159 6.86040
321 6 15 0.00000 2.40571 8.98311 5.89113
322 6 15 0.00000 1.21180 9.10185 4.93803
323 6 15 0.00000 0.07868 9.18093 3.91740
324 6 16 0.00000 -1.16013 9.33211 3.01566
325 7 16 0.40000 26.12051 20.98587 30.49675
326 7 16 0.40000 26.65090 20.44502 28.24882
327 7 16 0.40000 24.38709 20.33490 29.00405
328 7 8 -0.50000 25.64120 21.08378 29.10718
329 7 15 0.30000 25.47163 22.48523 28.71266
330 7 15 0.40000 25.23087 23.87434 28.08635
331 7 3 -0.80000 24.77882 24.83560 27.26580
332 7 30 1.70000 23.35834 24.34799 26.55386
333 7 2 -0.80000 22.25131 24.82534 27.46054
334 7 2 -0.80000 23.55134 22.85226 26.34400
335 7 3 -0.70000 23.33251 25.17881 25.12244
336 7 15 0.40000 22.49211 24.77456 24.12794
337 7 14 0.30000 21.79209 23.96404 23.12247
338 7 4 -0.70000 20.54632 24.32052 22.38388
339 7 12 0.70000 20.57242 24.55065 20.97848
340 7 1 -0.70000 21.61586 24.81827 20.38902
341 7 15 0.00000 19.25471 24.44280 20.11654
342 7 15 0.00000 17.90560 24.33793 18.87401
343 7 15 0.00000 16.56956 24.23442 17.59903
344 7 15 0.00000 15.20944 24.13662 16.33735
345 7 15 0.00000 13.82085 24.05044 15.10130
346 7 15 0.00000 12.40751 23.97847 13.89274
347 7 15 0.00000 10.97463 23.92314 12.71185
348 7 15 0.00000 9.52916 23.88335 11.56140
349 7 15 0.00000 8.08137 23.86430 10.44042
350 7 15 0.00000 6.64168 23.86842 9.35378
351 7 15 0.00000 5.22075 23.89999 8.30759
352 7 15 0.00000 3.83020 23.96011 7.31582
353 7 15 0.00000 2.48094 24.05940 6.37086
354 7 15 0.00000 1.16916 24.19508 5.46048
355 7 15 0.00000 -0.10895 24.35622 4.57101
356 7 15 0.00000 -1.49187 24.43006 3.60514
357 7 16 0.00000 -2.69884 24.65305 2.77115
358 7 15 0.50000 21.97830 22.58567 23.48356
359 7 4 -0.70000 22.39318 21.44668 24.05398
360 7 12 0.80000 21.66854 20.31830 23.92324
361 7 1 -0.60000 22.05003 19.20662 24.32898
362 7 15 0.00000 20.41385 20.42956 23.24686
363 7 15 0.00000 19.09128 20.67742 22.54275
364 7 15 0.00000 17.75358 20.96438 21.88534
365 7 15 0.00000 16.40385 21.23179 21.24278
366 7 15 0.00000 15.06476 21.46902 20.56300
367 7 15 0.00000 13.75683 21.68522 19.81574
368 7 15 0.00000 12.48499 21.88376 19.00149
369 7 15 0.00000 11.24119 22.05215 18.13667
370 7 15 0.00000 10.01637 22.16789 17.23433
371 7 15 0.00000 8.81329 22.21575 16.29739
372 7 15 0.00000 7.64236 22.20542 15.31726
373 7 15 0.00000 6.51646 22.16701 14.28415
374 7 15 0.00000 5.43801 22.13469 13.20131
375 7 15 0.00000 4.39257 22.12457 12.08481
376 7 15 0.00000 3.35917 22.12861 10.95344
377 7 15 0.00000 2.26869 22.08214 9.88546
378 7 16 0.00000 1.28034 22.12253 8.70555
379 8 16 0.40000 -14.07989 -6.87534 31.35435
380 8 16 0.40000 -15.15255 -8.93877 30.88679
381 8 16 0.40000 -16.21635 -6.87913 30.30926
382 8 8 -0.50000 -14.93061 -7.57664 30.37728
383 8 15 0.30000 -14.27593 -7.63902 29.06733
384 8 15 0.40000 -13.77710 -7.82662 27.61963
385 8 3 -0.80000 -13.77668 -8.05280 26.29656
386 8 30 1.70000 -15.26381 -7.67346 25.65864
387 8 2 -0.80000 -15.18485 -6.22408 25.24814
388 8 2 -0.80000 -16.24305 -8.08213 26.75068
389 8 3 -0.70000 -15.37755 -8.64710 24.32485
390 8 15 0.40000 -16.59592 -8.85688 23.75011
391 8 14 0.30000 -18.00741 -9.20221 23.53483
392 8 4 -0.70000 -18.84084 -8.88881 22.33828
393 8 12 0.70000 -19.31265 -9.92783 21.48587
394 8 1 -0.70000 -18.78774 -11.03785 21.47230
395 8 15 0.00000 -20.55434 -9.69648 20.53950
396 8 15 0.00000 -21.98604 -9.72579 19.38870
397 8 15 0.00000 -23.42392 -9.78774 18.22682
398 8 15 0.00000 -24.86614 -9.82330 17.05631
399 8 15 0.00000 -26.30570 -9.81993 15.87688
400 8 15 0.00000 -27.73785 -9.77852 14.68921
401 8 15 0.00000 -29.15780 -9.70219 13.49397
402 8 15 0.00000 -30.56095 -9.59364 12.29651
403 8 15 0.00000 -31.93820 -9.45999 11.09718
404 8 15 0.00000 -33.27956 -9.30438 9.90134
405 8 15 0.00000 -34.57313 -9.12903 8.71370
406 8 15 0.00000 -35.80494 -8.93126 7.54563
407 8 15 0.00000 -36.96495 -8.72311 6.39049
408 8 15 0.00000 -38.06283 -8.51129 5.24256
409 8 15 0.00000 -39.11437 -8.30434 4.10144
410 8 15 0.00000 -40.32072 -8.09134 2.93948
411 8 16 0.00000 -41.26378 -7.88557 1.81238
412 8 15 0.50000 -18.65213 -9.17376 24.81876
413 8 4 -0.70000 -18.90700 -9.12283 26.13301
414 8 12 0.80000 -20.14623 -8.83043 26.57377
415 8 1 -0.60000 -20.47763 -8.87691 27.77127
416 8 15 0.00000 -21.12007 -8.48542 25.58548
417 8 15 0.00000 -22.05548 -8.10433 24.45139
418 8 15 0.00000 -22.95246 -7.67529 23.30451
419 8 15 0.00000 -23.86279 -7.22888 22.17395
420 8 15 0.00000 -24.80395 -6.81963 21.05222
421 8 15 0.00000 -25.77151 -6.48287 19.92694
422 8 15 0.00000 -26.76012 -6.22128 18.79813
423 8 15 0.00000 -27.77535 -6.01833 17.67945
424 8 15 0.00000 -28.83159 -5.86022 16.58990
425 8 15 0.00000 -29.93606 -5.74787 15.54343
426 8 15 0.00000 -31.08006 -5.69379 14.53340
427 8 15 0.00000 -32.24040 -5.71132 13.53853
428 8 15 0.00000 -33.39136 -5.79680 12.53622
429 8 15 0.00000 -34.52340 -5.92739 11.51591
430 8 15 0.00000 -35.64569 -6.07582 10.48325
431 8 15 0.00000 -36.80640 -6.14346 9.49328
432 8 16 0.00000 -37.90002 -6.35485 8.43028
433 9 16 0.40000 0.30812 -26.11219 29.46059
434 9 16 0.40000 0.88334 -25.98333 27.16288
435 9 16 0.40000 -1.28553 -26.74565 27.81265
436 9 8 -0.50000 -0.21650 -25.79373 28.12135
437 9 15 0.30000 -0.68944 -24.40756 28.06375
438 9 15 0.40000 -1.23524 -22.99359 27.77623
439 9 3 -0.80000 -1.90172 -21.98449 27.19382
440 9 30 1.70000 -3.20427 -22.58052 26.35091
441 9 2 -0.80000 -4.36374 -22.57602 27.31583
442 9 2 -0.80000 -2.70395 -23.90881 25.79973
443 9 3 -0.70000 -3.44236 -21.46089 25.15523
444 9 15 0.40000 -4.20314 -21.78831 24.07229
445 9 14 0.30000 -4.74091 -22.46871 22.88663
446 9 4 -0.70000 -6.05245 -22.22082 22.22108
447 9 12 0.70000 -6.11177 -21.66605 20.91055
448 9 1 -0.70000 -5.16426 -21.05216 20.42763
449 9 15 0.00000 -7.39829 -21.84477 20.01398
450 9 15 0.00000 -8.72588 -21.93769 18.74754
451 9 15 0.00000 -10.04181 -22.01890 17.45023
452 9 15 0.00000 -11.38215 -22.10294 16.16657
453 9 15 0.00000 -12.75210 -22.18804 14.90982
454 9 15 0.00000 -14.14853 -22.27137 13.68249
455 9 15 0.00000 -15.56688 -22.34959 12.48547
456 9 15 0.00000 -17.00004 -22.42290 11.32134
457 9 15 0.00000 -18.43911 -22.48397 10.19067
458 9 15 0.00000 -19.87430 -22.52944 9.09904
459 9 15 0.00000 -21.29595 -22.55442 8.05364
460 9 15 0.00000 -22.69258 -22.55870 7.06863
461 9 15 0.00000 -24.05597 -22.52809 6.13936
462 9 15 0.00000 -25.38959 -22.46316 5.25324
463 9 15 0.00000 -26.69517 -22.37187 4.39427
464 9 15 0.00000 -28.08658 -22.36762 3.43784
465 9 16 0.00000 -29.33436 -22.21565 2.64917
466 9 15 0.50000 -4.25746 -23.82158 22.91761
467 9 4 -0.70000 -3.59603 -24.94823 23.21420
468 9 12 0.80000 -4.06804 -26.14133 22.80287
469 9 1 -0.60000 -3.44923 -27.21037 22.94506
470 9 15 0.00000 -5.33470 -26.14257 22.13980
471 9 15 0.00000 -6.69735 -26.02210 21.48021
472 9 15 0.00000 -8.08188 -25.87876 20.87480
473 9 15 0.00000 -9.47363 -25.76002 20.27891
474 9 15 0.00000 -10.84954 -25.65887 19.64003
475 9 15 0.00000 -12.19229 -25.55517 18.93143
476 9 15 0.00000 -13.49775 -25.44479 18.15452
477 9 15 0.00000 -14.77072 -25.34516 17.32210
478 9 15 0.00000 -16.01494 -25.28260 16.44131
479 9 15 0.00000 -17.22442 -25.27166 15.51147
480 9 15 0.00000 -18.39125 -25.29893 14.52680
481 9 15 0.00000 -19.50951 -25.33080 13.48519
482 9 15 0.00000 -20.58397 -25.33513 12.39793
483 9 15 0.00000 -21.63175 -25.30347 11.28402
484 9 15 0.00000 -22.67116 -25.25233 10.15932
485 9 15 0.00000 -23.75399 -25.27613 9.08285
486 9 16 0.00000 -24.75834 -25.16953 7.92071
487 10 16 0.40000 8.51727 7.91480 29.06353
488 10 16 0.40000 6.32878 7.42287 29.83523
489 10 16 0.40000 6.63946 8.51093 27.73119
490 10 8 -0.50000 7.17431 7.48883 28.63315
491 10 15 0.30000 7.22660 6.17166 27.99223
492 10 15 0.40000 7.04710 4.80582 27.29788
493 10 3 -0.80000 6.51588 3.81448 26.56525
494 10 30 1.70000 5.46934 4.44414 25.43801
495 10 2 -0.80000 6.29298 4.70016 24.20046
496 10 2 -0.80000 4.82606 5.62220 26.15693
497 10 3 -0.70000 4.39351 3.21446 25.17275
498 10 15 0.40000 3.20179 3.48527 24.56841
499 10 14 0.30000 1.89234 4.06429 24.23979
500 10 4 -0.70000 1.11835 3.88702 22.97724
501 10 12 0.70000 -0.11685 3.17778 22.97265
502 10 1 -0.70000 -0.41624 2.40008 23.87455
503 10 15 0.00000 -1.16586 3.38770 21.81228
504 10 15 0.00000 -2.57443 3.46998 20.63580
505 10 15 0.00000 -4.01081 3.53537 19.47225
506 10 15 0.00000 -5.43677 3.60816 18.28368
507 10 15 0.00000 -6.83959 3.68894 17.06344
508 10 15 0.00000 -8.21612 3.77489 15.81400
509 10 15 0.00000 -9.56458 3.86228 14.53937
510 10 15 0.00000 -10.88166 3.95085 13.24631
511 10 15 0.00000 -12.16494 4.03238 11.94263
512 10 15 0.00000 -13.40745 4.10316 10.63701
513 10 15 0.00000 -14.60043 4.15819 9.33764
514 10 15 0.00000 -15.72861 4.19773 8.05449
515 10 15 0.00000 -16.79401 4.20627 6.79426
516 10 15 0.00000 -17.80950 4.18313 5.55482
517 10 15 0.00000 -18.79199 4.13428 4.33703
518 10 15 0.00000 -19.89039 4.16852 3.05517
519 10 16 0.00000 -20.78998 4.06230 1.87980
520 10 15 0.50000 1.81884 5.34400 24.88932
521 10 4 -0.70000 2.05370 6.41462 25.65967
522 10 12 0.80000 1.45591 7.59119 25.38804
523 10 1 -0.60000 1.54037 8.59003 26.12367
524 10 15 0.00000 0.66028 7.65430 24.20183
525 10 15 0.00000 -0.12840 7.60923 22.90477
526 10 15 0.00000 -0.86337 7.55123 21.57796
527 10 15 0.00000 -1.59262 7.51952 20.24629
528 10 15 0.00000 -2.36459 7.49770 18.93667
529 10 15 0.00000 -3.20137 7.46047 17.66613
530 10 15 0.00000 -4.10064 7.40346 16.43810
531 10 15 0.00000 -5.05233 7.34603 15.24886
532 10 15 0.00000 -6.05287 7.31548 14.09744
533 10 15 0.00000 -7.10398 7.32535 12.99171
534 10 15 0.00000 -8.20891 7.36075 11.93829
535 10 15 0.00000 -9.36516 7.38763 10.93887
536 10 15 0.00000 -10.55836 7.37636 9.98349
537 10 15 0.00000 -11.77069 7.32308 9.05234
538 10 15 0.00000 -12.99047 7.24825 8.12796
539 10 15 0.00000 -14.17623 7.25852 7.16581
540 10 16 0.00000 -15.42258 7.12013 6.27244
541 11 16 0.40000 -19.32624 -12.05220 27.84409
542 11 16 0.40000 -21.18783 -13.46446 28.25273
543 11 16 0.40000 -21.37408 -11.65795 26.70058
544 11 8 -0.50000 -20.48415 -12.70420 27.20818
545 11 15 0.30000 -20.04980 -13.61253 26.14294
546 11 15 0.40000 -19.82202 -14.61906 24.99627
547 11 3 -0.80000 -20.04951 -15.39696 23.92631
548 11 30 1.70000 -21.31024 -14.77892 23.03696
549 11 2 -0.80000 -20.69064 -13.84643 22.02601
550 11 2 -0.80000 -22.25330 -14.21081 24.08881
551 11 3 -0.70000 -21.94675 -16.10837 22.28376
552 11 15 0.40000 -23.19691 -16.03870 21.74434
553 11 14 0.30000 -24.64066 -15.83546 21.56487
554 11 4 -0.70000 -25.39228 -15.78846 20.27748
555 11 12 0.70000 -26.33098 -16.80637 19.94359
556 11 1 -0.70000 -26.30788 -17.90712 20.48734
557 11 15 0.00000 -27.46086 -16.54515 18.87305
558 11 15 0.00000 -28.89031 -16.50588 17.71974
559 11 15 0.00000 -30.33978 -16.49500 16.57074
560 11 15 0.00000 -31.78333 -16.46531 15.40171
561 11 15 0.00000 -33.20954 -16.40984 14.20744
562 11 15 0.00000 -34.61438 -16.33094 12.98944
563 11 15 0.00000 -35.99471 -16.23270 11.75020
564 11 15 0.00000 -37.34689 -16.11674 10.49614
565 11 15 0.00000 -38.66555 -15.99225 9.23174
566 11 15 0.00000 -39.94234 -15.86336 7.96418
567 11 15 0.00000 -41.16687 -15.73456 6.69986
568 11 15 0.00000 -42.32421 -15.60426 5.44909
569 11 15 0.00000 -43.41084 -15.48910 4.21245
570 11 15 0.00000 -44.43884 -15.39307 2.98691
571 11 15 0.00000 -45.42606 -15.31669 1.77436
572 11 15 0.00000 -46.55348 -15.18190 0.52473
573 11 16 0.00000 -47.44129 -15.14429 -0.66372
574 11 15 0.50000 -25.08245 -14.96988 22.62343
575 11 4 -0.70000 -25.15815 -14.23145 23.73869
576 11 12 0.80000 -26.11859 -13.29560 23.86982
577 11 1 -0.60000 -26.31539 -12.65612 24.91783
578 11 15 0.00000 -26.96341 -13.07219 22.73824
579 11 15 0.00000 -27.77362 -12.90171 21.46510
580 11 15 0.00000 -28.53075 -12.71461 20.16290
581 11 15 0.00000 -29.29124 -12.50089 18.86593
582 11 15 0.00000 -30.09394 -12.30014 17.59043
583 11 15 0.00000 -30.95048 -12.14777 16.34184
584 11 15 0.00000 -31.85708 -12.04808 15.12195
585 11 15 0.00000 -32.81068 -11.97951 13.93483
586 11 15 0.00000 -33.81677 -11.91666 12.78957
587 11 15 0.00000 -34.88084 -11.85101 11.69824
588 11 15 0.00000 -36.00077 -11.79903 10.66148
589 11 15 0.00000 -37.16312 -11.79039 9.66884
590 11 15 0.00000 -38.34538 -11.84284 8.70131
591 11 15 0.00000 -39.53070 -11.94693 7.74015
592 11 15 0.00000 -40.71569 -12.07474 6.77713
593 11 15 0.00000 -41.89828 -12.10349 5.81146
594 11 16 0.00000 -43.08599 -12.30666 4.85297
595 12 16 0.40000 6.10193 -5.38324 29.95730
596 12 16 0.40000 6.60760 -6.04716 27.73682
597 12 16 0.40000 4.34188 -6.02989 28.49416
598 12 8 -0.50000 5.62574 -5.32913 28.56426
599 12 15 0.30000 5.51339 -3.94132 28.10619
600 12 15 0.40000 5.32919 -2.57347 27.41707
601 12 3 -0.80000 4.91615 -1.63283 26.55318
602 12 30 1.70000 3.47622 -2.09371 25.86285
603 12 2 -0.80000 2.39053 -1.53059 26.74582
604 12 2 -0.80000 3.60754 -3.60409 25.72148
605 12 3 -0.70000 3.48313 -1.32856 24.39507
606 12 15 0.40000 2.62593 -1.74288 23.41921
607 12 14 0.30000 1.89234 -2.56896 22.45104
608 12 4 -0.70000 0.66155 -2.19571 21.69582
609 12 12 0.70000 0.69574 -2.03106 20.28143
610 12 1 -0.70000 1.74872 -1.83356 19.68137
611 12 15 0.00000 -0.62609 -2.12393 19.42406
612 12 15 0.00000 -1.97952 -2.22988 18.18633
613 12 15 0.00000 -3.31987 -2.33646 16.91613
614 12 15 0.00000 -4.68404 -2.43577 15.65895
615 12 15 0.00000 -6.07615 -2.52114 14.42681
616 12 15 0.00000 -7.49237 -2.59006 13.22145
617 12 15 0.00000 -8.92742 -2.64031 12.04298
618 12 15 0.00000 -10.37438 -2.67315 10.89418
619 12 15 0.00000 -11.82278 -2.68385 9.77387
620 12 15 0.00000 -13.26210 -2.67019 8.68683
621 12 15 0.00000 -14.68153 -2.62806 7.63896
622 12 15 0.00000 -16.06937 -2.55620 6.64419
623 12 15 0.00000 -17.41431 -2.44481 5.69442
624 12 15 0.00000 -18.72027 -2.29706 4.77759
625 12 15 0.00000 -19.99153 -2.12432 3.88050
626 12 15 0.00000 -21.37116 -2.03791 2.91098
627 12 16 0.00000 -22.56875 -1.80383 2.06658
628 12 15 0.50000 2.02223 -3.93593 22.87468
629 12 4 -0.70000 2.39060 -5.06382 23.49675
630 12 12 0.80000 1.62019 -6.16633 23.41684
631 12 1 -0.60000 1.95617 -7.27309 23.87313
632 12 15 0.00000 0.37048 -6.03464 22.73493
633 12 15 0.00000 -0.94147 -5.76508 22.01903
634 12 15 0.00000 -2.26689 -5.45376 21.34799
635 12 15 0.00000 -3.60513 -5.16078 20.69266
636 12 15 0.00000 -4.93400 -4.90005 20.00153
637 12 15 0.00000 -6.23267 -4.66465 19.24398
638 12 15 0.00000 -7.49606 -4.45142 18.42034
639 12 15 0.00000 -8.73272 -4.27173 17.54760
640 12 15 0.00000 -9.95260 -4.14708 16.63978
641 12 15 0.00000 -11.15359 -4.09265 15.70051
642 12 15 0.00000 -12.32487 -4.09958 14.72078
643 12 15 0.00000 -13.45236 -4.13880 13.68943
644 12 15 0.00000 -14.53224 -4.17615 12.60818
645 12 15 0.00000 -15.57826 -4.19422 11.49232
646 12 15 0.00000 -16.61168 -4.19934 10.36097
647 12 15 0.00000 -17.70415 -4.24964 9.29520
648 12 16 0.00000 -18.69111 -4.22254 8.11376
649 13 16 0.40000 9.92039 -18.45693 27.50146
650 13 16 0.40000 9.47457 -16.43853 26.33772
651 13 16 0.40000 8.65593 -18.51578 25.48791
652 13 8 -0.50000 8.90524 -17.74381 26.70699
653 13 15 0.30000 7.67927 -17.54632 27.48574
654 13 15 0.40000 6.30803 -17.22437 28.11495
655 13 3 -0.80000 5.00980 -16.90489 28.23417
656 13 30 1.70000 4.19397 -17.33245 26.85070
657 13 2 -0.80000 3.70205 -18.74082 27.07423
658 13 2 -0.80000 5.19937 -17.06636 25.73857