LAMMPS data file via write_data, version 15 May 2015, timestep = 20642

14144 atoms
58 atom types
11456 bonds
54 bond types
9776 angles
55 angle types
5632 dihedrals
43 dihedral types
336 impropers
3 improper types

-2.6800882047859627e+01 2.6800882047859627e+01 xlo xhi
-2.8128597080576213e+01 2.8128597080576213e+01 ylo yhi
-3.8923468553845716e+01 3.8923468553845716e+01 zlo zhi

Masses

1 15.9994
2 15.9994
3 15.9994
4 15.9994
5 15.9994
6 14.0067
7 14.0067
8 14.0067
9 14.0067
10 14.0067
11 14.0067
12 12.011
13 12.011
14 13.019
15 14.027
16 15.035
17 16.043
18 14.027
19 13.019
20 1.008
21 1.008
22 999
23 32.06
24 63.546
25 63.546
26 55.847
27 65.37
28 24.305
29 40.08
30 30.9738
31 39.948
32 18.9984
33 35.453
34 79.904
35 15.035
36 15.9994
37 22.9898
38 35.453
39 12.011
40 35.453
41 1.008
42 32.06
43 15.035
44 15.9994
45 12.011
46 35.453
47 18.9984
48 12.011
49 14.027
50 15.9994
51 12.011
52 15.9994
53 14.0067
54 28.08
55 999
56 999
57 15.994
58 1.008

Pair Coeffs # lj/cut/coul/long/gpu

1 0.30699 2.7601
2 0.41401 2.6259
3 0.25371 2.8492
4 0.25371 2.8492
5 0.15604 3.1656
6 0.15355 3.1365
7 0.15355 3.1365
8 0.15355 3.1365
9 0.15355 3.1365
10 0.15355 3.1365
11 0.15355 3.1365
12 0.066577 3.5812
13 0.0016789 6.6395
14 0.022773 5.0192
15 0.09853 4.0704
16 0.20812 3.7479
17 0.30682 3.7028
18 0.11503 3.9547
19 0.14617 3.6818
20 0.028411 2.3734
21 0 0
22 0 0
23 0.039532 2.309
24 0 0
25 0 1
26 0 0
27 0 0
28 0 0
29 0 0
30 0.58722 3.3856
31 0 0
32 0 0
33 0 0
34 0 0
35 0 0
36 0 0
37 0 0
38 0 0
39 0 0
40 0 0
41 0 0
42 0 0
43 0 0
44 0 0
45 0 0
46 0 0
47 0 0
48 0 0
49 0 0
50 0 0
51 0 0
52 0 0
53 0 0
54 0 0
55 0 0
56 0 0
57 0.15543 3.1655
58 0 0

Bond Coeffs # harmonic

1 375.23 1
2 446.93 1
3 349.266 1.09
4 1109.27 1.12
5 600.228 1.23
6 500.406 1.25
7 499.72 1.32
8 374.994 1.33
9 448.133 1.33
10 498.865 1.33
11 450.606 1.34
12 502.104 1.34
13 450.896 1.36
14 500.667 1.38
15 399.894 1.39
16 498.714 1.39
17 400.048 1.4
18 399.782 1.43
19 450.121 1.43
20 300.214 1.435
21 449.832 1.47
22 299.969 1.48
23 399.958 1.48
24 450.215 1.48
25 450.097 1.5
26 299.837 1.52
27 400.025 1.53
28 299.844 1.61
29 299.72 1.63
30 205.971 1.78
31 449.805 1.78
32 449.818 1.83
33 300.038 1.87
34 59.9664 1.98
35 60.0368 2
36 500.295 2.04
37 63.0342 2.21
38 554.48 1
39 349.92 1.1
40 599.78 1.758
41 449.818 1.53
42 444.33 1.938
43 599.664 1.76
44 501.014 1.265
45 448.645 1.35
46 555.115 1.633
47 350.241 2.3384
48 600.147 2.9028
49 445.873 2.7939
50 443.805 2.9119
51 409.318 2.077
52 600.159 2.8741
53 527.1 1
54 629.318 0.94

Improper Coeffs # harmonic

1 20.0071 0
2 40.0141 35.2644
3 80.0282 0

Atoms # full

10578 1500 57 -8.1999999999999995e-01 -2.5434616513550775e+01 -1.9311396595248624e+01 -3.6013266468320936e+01 0 0 0
10579 1500 58 4.0999999999999998e-01 -2.5469579963329753e+01 -2.0308507059063437e+01 -3.6080714029966629e+01 0 0 0
10580 1500 58 4.0999999999999998e-01 -2.5022991772103865e+01 -1.9050113797870850e+01 -3.5140159740531658e+01 0 0 0
10605 1509 57 -8.1999999999999995e-01 -2.4934652993571294e+01 -2.1908271693173234e+01 -3.5375276423360951e+01 0 0 0
10606 1509 58 4.0999999999999998e-01 -2.4025093015742073e+01 -2.2296088537064790e+01 -3.5524656401021453e+01 0 0 0
10607 1509 58 4.0999999999999998e-01 -2.5623156960990752e+01 -2.2628041405135129e+01 -3.5464180362455707e+01 0 0 0
10864 1595 58 4.0999999999999998e-01 -2.1076561815174617e+01 -2.2882644392873161e+01 -3.6746980114768355e+01 0 0 0
10877 1599 58 4.0999999999999998e-01 -1.9129586461658146e+01 -2.4588007559654695e+01 -3.6800407965580852e+01 0 0 0
10863 1595 57 -8.1999999999999995e-01 -2.0612178344059210e+01 -2.3613861741010535e+01 -3.6247301585074474e+01 0 0 0
10865 1595 58 4.0999999999999998e-01 -2.0887409497427413e+01 -2.3588438435871161e+01 -3.5286249056589469e+01 0 0 0
10602 1508 57 -8.1999999999999995e-01 -2.4909887403656626e+01 -2.4721441858098842e+01 -3.5927051959705629e+01 0 0 0
10604 1508 58 4.0999999999999998e-01 -2.4135352534563836e+01 -2.5091599796411579e+01 -3.5414123540793433e+01 0 0 0
11409 1777 57 -8.1999999999999995e-01 -2.1962067787209982e+01 -2.0918191537787987e+01 -3.2220421805927977e+01 0 0 0
11183 1701 58 4.0999999999999998e-01 -2.3748997078368525e+01 -1.9780420690778101e+01 -3.0204856242629617e+01 0 0 0
10617 1513 57 -8.1999999999999995e-01 -2.2162079869754415e+01 -2.3301744966095093e+01 -3.3407429117636767e+01 0 0 0
10619 1513 58 4.0999999999999998e-01 -2.1856159825679441e+01 -2.2407783708263700e+01 -3.3079936259068752e+01 0 0 0
10618 1513 58 4.0999999999999998e-01 -2.1844244565588820e+01 -2.4013419706939764e+01 -3.2780922571720438e+01 0 0 0
10603 1508 58 4.0999999999999998e-01 -2.5453714012307870e+01 -2.5473514898832232e+01 -3.6299405654850524e+01 0 0 0
10871 1597 58 4.0999999999999998e-01 -2.1248840961054430e+01 -2.4914479376030457e+01 -3.0929273501604268e+01 0 0 0
10870 1597 58 4.0999999999999998e-01 -2.0722054848468201e+01 -2.6252568907110593e+01 -3.1703641292523162e+01 0 0 0
10869 1597 57 -8.1999999999999995e-01 -2.0728675339195497e+01 -2.5252639540807110e+01 -3.1713552224744987e+01 0 0 0
10641 1521 57 -8.1999999999999995e-01 -2.5786545119820211e+01 -2.1770502764496936e+01 -3.2689718154476409e+01 0 0 0
11147 1689 58 4.0999999999999998e-01 -2.0224139040019097e+01 -2.1301787748709469e+01 -3.8140779060655390e+01 0 0 0
10643 1521 58 4.0999999999999998e-01 -2.5031488207320773e+01 -2.1808571880185294e+01 -3.2035150343864984e+01 0 0 0
6493 138 58 4.0999999999999998e-01 -2.1308671864823314e+01 -2.4655439911115110e+01 -3.7564665103839118e+01 0 0 1
6492 138 57 -8.1999999999999995e-01 -2.2123337097592540e+01 -2.5058149339119449e+01 -3.7981992055710613e+01 0 0 1
11181 1701 57 -8.1999999999999995e-01 -2.4017057008767498e+01 -1.9302576454038473e+01 -3.1041412333472934e+01 0 0 0
11422 1781 58 4.0999999999999998e-01 -2.1567937209517581e+01 -1.9315719281319886e+01 -3.5106180718560587e+01 0 0 0
11421 1781 57 -8.1999999999999995e-01 -2.0859594978114330e+01 -1.9429693086985559e+01 -3.4409559322341892e+01 0 0 0
10904 1608 58 4.0999999999999998e-01 -2.5258178457185913e+01 -2.4311852713258329e+01 -3.1750286043894704e+01 0 0 0
10903 1608 58 4.0999999999999998e-01 -2.4904621357905153e+01 -2.5810355012799043e+01 -3.2295365128736350e+01 0 0 0
10902 1608 57 -8.1999999999999995e-01 -2.5566662993441756e+01 -2.5061945816977101e+01 -3.2335270375559226e+01 0 0 0
11411 1777 58 4.0999999999999998e-01 -2.2617492535288068e+01 -2.0423617942437190e+01 -3.1649606325313549e+01 0 0 0
11410 1777 58 4.0999999999999998e-01 -2.1726462279126213e+01 -2.0361500217980797e+01 -3.3017039386529603e+01 0 0 0
11141 1687 58 4.0999999999999998e-01 -2.0396506838006381e+01 -2.2007292088673147e+01 -3.1446444209927549e+01 0 0 0
11140 1687 58 4.0999999999999998e-01 -2.0090070161177348e+01 -2.3601883590871651e+01 -3.1622491062364897e+01 0 0 0
11139 1687 57 -8.1999999999999995e-01 -1.9780669085888917e+01 -2.2680151610158262e+01 -3.1856339724460700e+01 0 0 0
11138 1686 58 4.0999999999999998e-01 -1.9725811025735471e+01 -2.5290484831426021e+01 -3.3083979019042985e+01 0 0 0
10575 1499 57 -8.1999999999999995e-01 -2.0836851054658318e+01 -2.7990506294900872e+01 -3.1689979192628360e+01 0 0 0
10881 1601 57 -8.1999999999999995e-01 -2.0285684793120044e+01 -1.8904019739000503e+01 -3.0248630384237757e+01 0 0 0
10882 1601 58 4.0999999999999998e-01 -2.0483574976966512e+01 -1.8355698613755209e+01 -3.1061156415085957e+01 0 0 0
11136 1686 57 -8.1999999999999995e-01 -1.9125768240807158e+01 -2.5612708607098408e+01 -3.3816194455374614e+01 0 0 0
10914 1612 57 -8.1999999999999995e-01 -2.4871892408527085e+01 -1.8579232952243419e+01 -3.3576983970514689e+01 0 0 0
10915 1612 58 4.0999999999999998e-01 -2.4618115987113722e+01 -1.8992576671754101e+01 -3.2702477056263461e+01 0 0 0
11423 1781 58 4.0999999999999998e-01 -2.0020213267929094e+01 -1.9763554444678594e+01 -3.4838502327074600e+01 0 0 0
11137 1686 58 4.0999999999999998e-01 -1.8514789058475216e+01 -2.4872574192980043e+01 -3.4097112415297893e+01 0 0 0
7332 418 57 -8.1999999999999995e-01 -2.2237613058596978e+01 -2.1908849694736489e+01 -3.7715454762695785e+01 0 0 1
10883 1601 58 4.0999999999999998e-01 -1.9513089424821903e+01 -1.9510817682655723e+01 -3.0435458861271798e+01 0 0 0
10868 1596 58 4.0999999999999998e-01 -1.7753750801110773e+01 -2.6078687499079553e+01 -3.2705195863689113e+01 0 0 0
10866 1596 57 -8.1999999999999995e-01 -1.7099338583613182e+01 -2.6452350528645681e+01 -3.2047824503713933e+01 0 0 0
10875 1599 57 -8.1999999999999995e-01 -1.8240513014205334e+01 -2.5040709163166408e+01 -3.6868411935058020e+01 0 0 0
10642 1521 58 4.0999999999999998e-01 -2.5431646893651511e+01 -2.1894950514031592e+01 -3.3616314663255828e+01 0 0 0
7334 418 58 4.0999999999999998e-01 -2.2710923523115408e+01 -2.1149851188737721e+01 -3.7268344801733328e+01 0 0 1
6761 227 58 4.0999999999999998e-01 -2.5229497059622989e+01 -1.9747087308556971e+01 -3.7796331240550437e+01 0 0 1
3684 69 15 4.0000000000000002e-01 -3.3242767319678473e-01 -2.7557642962145965e+00 -2.3667884854729703e+01 0 0 0
12024 1982 57 -8.1999999999999995e-01 -5.0763772790277848e+00 -4.0285322253812197e+00 -3.8303219004926106e+01 0 0 0
12488 2136 58 4.0999999999999998e-01 -4.4176193027454502e-01 -2.3372161958985750e+01 -3.0874275844101348e+01 0 0 0
7034 318 58 4.0999999999999998e-01 -2.3005033454757861e+01 -2.7056361512313956e+01 -3.5786797982514265e+01 0 0 1
10329 1417 57 -8.1999999999999995e-01 -2.5981911681322003e+01 -2.6008255775886415e+01 -2.9468274907354733e+01 0 0 0
7032 318 57 -8.1999999999999995e-01 -2.2727117525837539e+01 -2.6194251597953258e+01 -3.5363081576038731e+01 0 0 1
10326 1416 57 -8.1999999999999995e-01 -2.4719268443267275e+01 -2.3369495204395999e+01 -3.0339943715675279e+01 0 0 0
11461 1794 58 4.0999999999999998e-01 -1.5876631931873073e+01 -1.8391706914080387e+01 -3.8771019855525289e+01 0 0 0
10851 1591 57 -8.1999999999999995e-01 -2.4260158272412291e+01 -2.7274316761765014e+01 -3.2682282030794703e+01 0 0 0
11146 1689 58 4.0999999999999998e-01 -1.8896858475722347e+01 -2.1081105792223404e+01 -3.7214880299325877e+01 0 0 0
10876 1599 58 4.0999999999999998e-01 -1.7720200332691981e+01 -2.4642735263468424e+01 -3.7623996660566739e+01 0 0 0
6746 222 58 4.0999999999999998e-01 -2.6325118611177093e+01 -2.7800851058830467e+01 -3.7575475357600851e+01 0 0 1
11132 1684 58 4.0999999999999998e-01 -1.7416724505250130e+01 -2.3864188267518017e+01 -3.5572660507085153e+01 0 0 0
11155 1692 58 4.0999999999999998e-01 -1.8101437947921156e+01 -2.2619486973278960e+01 -3.1898603115225420e+01 0 0 0
10328 1416 58 4.0999999999999998e-01 -2.5164881392571765e+01 -2.3153759756055926e+01 -2.9471090027811691e+01 0 0 0
3707 69 4 -6.9999999999999996e-01 -7.8485531834578959e-02 -5.7000645125694360e+00 -2.3772978960423508e+01 0 0 0
11149 1690 58 4.0999999999999998e-01 -2.0980527163901932e+01 -1.7927146682063452e+01 -3.3282892748302828e+01 0 0 0
10905 1609 57 -8.1999999999999995e-01 -2.2621186111256499e+01 -1.9038824809348881e+01 -3.6609974621773461e+01 0 0 0
10907 1609 58 4.0999999999999998e-01 -2.3587286079270250e+01 -1.8841898970764920e+01 -3.6442976501030095e+01 0 0 0
10897 1606 58 4.0999999999999998e-01 -2.5696029334857482e+01 -1.8368084297711817e+01 -2.8868834389145448e+01 0 0 0
11689 1870 58 4.0999999999999998e-01 -1.8548030399622988e+01 -2.1670041841212189e+01 -3.4964867988870033e+01 0 0 0
11688 1870 57 -8.1999999999999995e-01 -1.8493638332335657e+01 -2.0789369540716550e+01 -3.5435466794537582e+01 0 0 0
7124 348 58 4.0999999999999998e-01 -2.3937362452780022e+01 -6.7655848953037356e+00 -3.7966907126994712e+01 0 0 1
10841 1587 58 4.0999999999999998e-01 -2.6290747289118016e+01 -2.7570589629569273e+01 -3.0064775679287926e+01 0 1 0
7302 408 57 -8.1999999999999995e-01 -1.8692187865055516e+01 -2.7742455678007733e+01 -3.5266193220715969e+01 0 0 1
7304 408 58 4.0999999999999998e-01 -1.8937440857550897e+01 -2.6784062140730438e+01 -3.5120124353026995e+01 0 0 1
10601 1507 58 4.0999999999999998e-01 -2.6254821220269832e+01 -2.5405842948949939e+01 -2.6036468314228927e+01 0 0 0
10331 1417 58 4.0999999999999998e-01 -2.6243180192328303e+01 -2.5386297072778351e+01 -3.0206461377010974e+01 0 0 0
10626 1516 57 -8.1999999999999995e-01 -2.2719278615484683e+01 -2.0861997000156137e+01 -2.9053583433814950e+01 0 0 0
10628 1516 58 4.0999999999999998e-01 -2.1832914912331983e+01 -2.0444160829321920e+01 -2.8854116687822973e+01 0 0 0
11145 1689 57 -8.1999999999999995e-01 -1.9271912765874291e+01 -2.0996380360006896e+01 -3.8138014577214101e+01 0 0 0
11184 1702 57 -8.1999999999999995e-01 -2.6653768080746691e+01 -1.6571528676731290e+01 -3.1210512074749737e+01 0 0 0
10372 1431 58 4.0999999999999998e-01 -2.6617210806888675e+01 -2.0453226584039353e+01 -3.1907949517818928e+01 0 0 0
12345 2089 57 -8.1999999999999995e-01 -5.1645029619411353e+00 -1.5867175271832323e-01 -3.4965835613347991e+01 0 0 0
12484 2135 58 4.0999999999999998e-01 -5.3431172930435267e-01 -2.7807122445568652e+01 -2.5815980966987262e+01 0 0 0
12318 2080 57 -8.1999999999999995e-01 -5.0928965628883347e+00 -3.8089771996831345e-01 -3.8662074867295608e+01 0 0 0
6494 138 58 4.0999999999999998e-01 -2.2734121756744045e+01 -2.5394365497236599e+01 -3.7265110862426994e+01 0 0 1
11431 1784 58 4.0999999999999998e-01 -1.3893455197394816e+01 -1.9199473304241394e+01 -3.8720719001743575e+01 0 0 0
12618 2180 57 -8.1999999999999995e-01 -1.5949821393546699e+00 -3.8626180791048199e+00 -3.3153103040239266e+01 0 0 0
11429 1783 58 4.0999999999999998e-01 -1.7256005564852288e+01 -1.9455347024002940e+01 -3.0639554877238321e+01 0 0 0
11427 1783 57 -8.1999999999999995e-01 -1.7944108948682981e+01 -2.0176592931495666e+01 -3.0560013406765488e+01 0 0 0
12486 2136 57 -8.1999999999999995e-01 -2.6221363656804897e-01 -2.3370923562609072e+01 -2.9890516842017295e+01 0 0 0
10867 1596 58 4.0999999999999998e-01 -1.6189441894636694e+01 -2.6480337311173482e+01 -3.2461736042862512e+01 0 0 0
8082 668 57 -8.1999999999999995e-01 -9.8577943232598422e+00 -2.3588842742344326e+01 -3.2153946260286297e+01 0 1 1
12188 2036 58 4.0999999999999998e-01 -9.5233071097103803e+00 -2.6783591246795574e+01 -3.1373112782454228e+01 0 1 0
11130 1684 57 -8.1999999999999995e-01 -1.7299055097608331e+01 -2.3672211347411082e+01 -3.4598330414153622e+01 0 0 0
11131 1684 58 4.0999999999999998e-01 -1.6337121827535910e+01 -2.3473065342828399e+01 -3.4411134335862485e+01 0 0 0
11151 1691 57 -8.1999999999999995e-01 -1.6305123378158527e+01 -1.9293679005420824e+01 -3.4580938028442496e+01 0 0 0
11152 1691 58 4.0999999999999998e-01 -1.5705812098242690e+01 -2.0037738564128169e+01 -3.4285624005956393e+01 0 0 0
11403 1775 57 -8.1999999999999995e-01 -1.2537714236676518e+01 -2.4914390121808434e+01 -3.2749861510054274e+01 0 0 0
11404 1775 58 4.0999999999999998e-01 -1.1767778352417757e+01 -2.5291469500809331e+01 -3.2235054287039254e+01 0 0 0
11405 1775 58 4.0999999999999998e-01 -1.2196213489390294e+01 -2.4285667287287939e+01 -3.3448501369639295e+01 0 0 0
11678 1866 58 4.0999999999999998e-01 -1.4859961802159086e+01 -2.0001253528679921e+01 -3.1157241182927791e+01 0 0 0
11154 1692 57 -8.1999999999999995e-01 -1.7119008467434782e+01 -2.2742287726234430e+01 -3.1757998966161583e+01 0 0 0
12073 1998 58 4.0999999999999998e-01 -6.7224934773133818e+00 -2.5641516464060388e-01 -2.7681574565562642e+01 0 0 0
12186 2036 57 -8.1999999999999995e-01 -1.0271574367935710e+01 -2.6246467710720783e+01 -3.1762481252029989e+01 0 1 0
8084 668 58 4.0999999999999998e-01 -1.0247917021332796e+01 -2.3522142704024521e+01 -3.3072301067714328e+01 0 1 1
11156 1692 58 4.0999999999999998e-01 -1.6709983618452462e+01 -2.3132703739585025e+01 -3.2582796691654892e+01 0 0 0
11950 1957 58 4.0999999999999998e-01 -1.4717481077220237e+01 -2.6535567539867898e+01 -3.4278286287669161e+01 0 0 0
11424 1782 57 -8.1999999999999995e-01 -1.4910041417338739e+01 -2.1564584094053860e+01 -3.0170703953050520e+01 0 0 0
11425 1782 58 4.0999999999999998e-01 -1.5529288046922016e+01 -2.2112815358503479e+01 -3.0732833839327313e+01 0 0 0
11400 1774 57 -8.1999999999999995e-01 -1.1153954387349174e+01 -2.3164027461395435e+01 -3.4428124312543041e+01 0 0 0
12187 2036 58 4.0999999999999998e-01 -1.0885650490009722e+01 -2.6849534196443372e+01 -3.2271630861886266e+01 0 1 0
8083 668 58 4.0999999999999998e-01 -9.7842444455703514e+00 -2.4551006009683913e+01 -3.1891583081669285e+01 0 1 1
11402 1774 58 4.0999999999999998e-01 -1.1623083358544532e+01 -2.2302126948261069e+01 -3.4620611353326431e+01 0 0 0
11949 1957 57 -8.1999999999999995e-01 -1.4738114082068703e+01 -2.6406089407607904e+01 -3.3286908402865258e+01 0 0 0
11717 1879 58 4.0999999999999998e-01 -1.3731382187548128e+01 -2.3355200992360054e+01 -3.7220522655760014e+01 0 0 0
11426 1782 58 4.0999999999999998e-01 -1.4259873374726622e+01 -2.2166070017116340e+01 -2.9706473665752217e+01 0 0 0
11670 1864 57 -8.1999999999999995e-01 -1.2938839921454566e+01 -2.0661054216048381e+01 -3.3329517182077801e+01 0 0 0
11951 1957 58 4.0999999999999998e-01 -1.3917315139061847e+01 -2.5913644393767406e+01 -3.2997425306017249e+01 0 0 0
11432 1784 58 4.0999999999999998e-01 -1.4672378009880450e+01 -2.0355879610109263e+01 -3.7870046500306643e+01 0 0 0
11671 1864 58 4.0999999999999998e-01 -1.2285267377420816e+01 -2.0776996262971153e+01 -3.2581573690791345e+01 0 0 0
11386 1769 58 4.0999999999999998e-01 -1.2086502646273310e+01 -2.1120872085490710e+01 -3.6872469403133714e+01 0 0 0
11385 1769 57 -8.1999999999999995e-01 -1.1476052611260922e+01 -2.0588845388059468e+01 -3.6285687711223176e+01 0 0 0
11672 1864 58 4.0999999999999998e-01 -1.2536609247501136e+01 -2.0080277744947374e+01 -3.4037276307082379e+01 0 0 0
12348 2090 57 -8.1999999999999995e-01 -5.5722681809008634e-02 -3.3133376463301154e+00 -3.7032806998805675e+01 0 0 0
11401 1774 58 4.0999999999999998e-01 -1.1026484062238792e+01 -2.3672165796240492e+01 -3.5279924391660948e+01 0 0 0
11387 1769 58 4.0999999999999998e-01 -1.0605000003064049e+01 -2.0443396259552227e+01 -3.6754868439810608e+01 0 0 0
11673 1865 57 -8.1999999999999995e-01 -1.4934436165152313e+01 -2.2061345618499669e+01 -3.4274526497572040e+01 0 0 0
11675 1865 58 4.0999999999999998e-01 -1.4255336835910715e+01 -2.1613117424446315e+01 -3.3693208224049961e+01 0 0 0
11977 1966 58 4.0999999999999998e-01 -1.2553954373408947e+01 -1.9024412852010656e+01 -3.6576380548535454e+01 0 0 0
11674 1865 58 4.0999999999999998e-01 -1.4474983252633944e+01 -2.2695125355043803e+01 -3.4896811000396909e+01 0 0 0
11417 1779 58 4.0999999999999998e-01 -1.1367100919037563e+01 -2.7190100609540572e+01 -3.5530195628850251e+01 0 0 0
11416 1779 58 4.0999999999999998e-01 -1.1210893042577842e+01 -2.5786384180447545e+01 -3.6350444403493604e+01 0 0 0
7602 508 57 -8.1999999999999995e-01 -1.4035828585078038e+01 -2.4919636662270921e+01 -3.6715054560901237e+01 0 0 1
11415 1779 57 -8.1999999999999995e-01 -1.1769140700049892e+01 -2.6608300261135334e+01 -3.6237221612356343e+01 0 0 0
7603 508 58 4.0999999999999998e-01 -1.4765575100595420e+01 -2.5570426767394569e+01 -3.6505405108239096e+01 0 0 1
7604 508 58 4.0999999999999998e-01 -1.3194749962613100e+01 -2.5417755214400387e+01 -3.6925952567524035e+01 0 0 1
11120 1680 58 4.0999999999999998e-01 -1.5728633298679206e+01 -2.7689767282120560e+01 -3.5845795281951581e+01 0 0 0
12216 2046 57 -8.1999999999999995e-01 -1.1386642581356977e+01 -2.1303336767010158e+01 -3.1173220485673440e+01 0 0 0
12217 2046 58 4.0999999999999998e-01 -1.0906176762309181e+01 -2.2112585179481048e+01 -3.1511270090324228e+01 0 0 0
12218 2046 58 4.0999999999999998e-01 -1.1329182345878964e+01 -2.1273585640944390e+01 -3.0175305501933344e+01 0 0 0
12483 2135 57 -8.1999999999999995e-01 -2.3614632698819804e-01 -2.7258275696304555e+01 -2.6596929097442136e+01 0 0 0
12238 2053 58 4.0999999999999998e-01 -8.8983507445372396e+00 -1.8965681029610735e+01 -2.9566381205443694e+01 0 0 0
11118 1680 57 -8.1999999999999995e-01 -1.5854817763890891e+01 -2.6771491767661811e+01 -3.6221097597942453e+01 0 0 0
12349 2090 58 4.0999999999999998e-01 -1.0048123249359477e+00 -3.1055581891569837e+00 -3.7269605322354835e+01 0 0 0
10681 1534 58 4.0999999999999998e-01 -2.6614658839811870e+01 -1.4587383638336563e+01 -3.3685051497905746e+01 0 0 0
10466 1462 58 4.0999999999999998e-01 -2.3565343516285434e+01 -3.3074158877450799e-02 -2.8682414256795713e+01 0 0 0
8398 773 58 4.0999999999999998e-01 -8.9992891049072981e+00 -1.9122736712621851e+01 -3.7216561232441961e+01 0 0 1
8397 773 57 -8.1999999999999995e-01 -8.8526755267425621e+00 -2.0069363302874464e+01 -3.7503625929268686e+01 0 0 1
11676 1866 57 -8.1999999999999995e-01 -1.4680580264501346e+01 -1.9290033380307186e+01 -3.1836946110253635e+01 0 0 0
11428 1783 58 4.0999999999999998e-01 -1.7647432585849181e+01 -2.0979475809721571e+01 -3.1077092076511335e+01 0 0 0
11677 1866 58 4.0999999999999998e-01 -1.4036349842820485e+01 -1.9635363692315984e+01 -3.2519391074482037e+01 0 0 0
11690 1870 58 4.0999999999999998e-01 -1.7666222368772445e+01 -2.0307396896228848e+01 -3.5147195796609985e+01 0 0 0
11119 1680 58 4.0999999999999998e-01 -1.6829580570181832e+01 -2.6600703516297770e+01 -3.6364925835598548e+01 0 0 0
11486 1802 58 4.0999999999999998e-01 -1.2756460846059110e+01 -7.6641984586237228e+00 -3.8254089957548139e+01 0 0 0
11420 1780 58 4.0999999999999998e-01 -1.0360348608758692e+01 -2.4859294675772158e+01 -3.7569326668523956e+01 0 0 0
11430 1784 57 -8.1999999999999995e-01 -1.4777186830044695e+01 -1.9638635151651449e+01 -3.8558948499449357e+01 0 0 0
11418 1780 57 -8.1999999999999995e-01 -1.0214839093573861e+01 -2.4501415539652655e+01 -3.6646955723151628e+01 0 0 0
11934 1952 57 -8.1999999999999995e-01 -8.4472772301268364e+00 -2.7609234165681436e+01 -3.0606545234575780e+01 0 0 0
10577 1499 58 4.0999999999999998e-01 -2.1559644329328975e+01 -2.8122544559228107e+01 -3.2368326291555910e+01 0 0 0
11715 1879 57 -8.1999999999999995e-01 -1.3504904494917650e+01 -2.2447863354450082e+01 -3.7574712258023773e+01 0 0 0
7033 318 58 4.0999999999999998e-01 -2.1766905022054036e+01 -2.6250997623397961e+01 -3.5089604809978290e+01 0 0 1
11419 1780 58 4.0999999999999998e-01 -9.2336726179505213e+00 -2.4425410252392012e+01 -3.6469323707644939e+01 0 0 0
12455 2125 58 4.0999999999999998e-01 -1.4494828222175933e+00 -2.2520601640901535e+01 -3.3158151405854717e+01 0 1 0
8442 788 57 -8.1999999999999995e-01 -6.0365672512022215e+00 -2.0119553357093835e+01 -3.7251747437674915e+01 0 0 1
8444 788 58 4.0999999999999998e-01 -5.2472032935600375e+00 -2.0535523207114728e+01 -3.7703288009243472e+01 0 0 1
11958 1960 57 -8.1999999999999995e-01 -3.1284666244061832e+00 -2.5357080080216551e+01 -3.8203269101320323e+01 0 0 0
11948 1956 58 4.0999999999999998e-01 -7.4631327303629860e+00 -2.8118739200365827e+01 -3.4859398364221590e+01 0 0 0
12237 2053 57 -8.1999999999999995e-01 -8.7746335722466391e+00 -1.9950706733680860e+01 -2.9446299158824971e+01 0 0 0
3681 69 2 -8.0000000000000004e-01 -2.6874052472220047e+00 -3.3561643507827932e-01 -2.5563098142493903e+01 0 0 0
6005 112 3 -6.9999999999999996e-01 -1.2017760293212323e+00 -7.9265748843544115e+00 -2.7253159728186354e+01 0 0 0
12225 2049 57 -8.1999999999999995e-01 -6.6918948468650363e+00 -2.6161538379492978e+01 -3.8550414217187750e+01 0 0 0
11899 1940 58 4.0999999999999998e-01 -6.1654560130084626e+00 -2.3505130019703227e+01 -3.6559156396334124e+01 0 1 0
10910 1610 58 4.0999999999999998e-01 -2.6750243586236724e+01 -1.7685548776973054e+01 -3.5763547052703636e+01 0 0 0
11947 1956 58 4.0999999999999998e-01 -6.8099065299603083e+00 -2.7329271095334299e+01 -3.6131283261601105e+01 0 0 0
11959 1960 58 4.0999999999999998e-01 -2.2886524581832859e+00 -2.5723303110177717e+01 -3.7802509015717582e+01 0 0 0
11957 1959 58 4.0999999999999998e-01 -3.1876243789254133e+00 -2.2514348688365335e+01 -3.7020619364208621e+01 0 0 0
11942 1954 58 4.0999999999999998e-01 -8.1722865886335256e+00 -2.2455246071108373e+01 -3.4357688665117593e+01 0 0 0
11960 1960 58 4.0999999999999998e-01 -3.1687586265474721e+00 -2.4369785525993485e+01 -3.8049556969113240e+01 0 0 0
11003 1641 58 4.0999999999999998e-01 -2.3198263777231325e+01 -3.6874526589558343e-01 -3.2616856506994196e+01 0 0 0
11940 1954 57 -8.1999999999999995e-01 -8.0576868941774435e+00 -2.1879035077541612e+01 -3.3548452784760443e+01 0 0 0
11941 1954 58 4.0999999999999998e-01 -8.5634217947592681e+00 -2.2275315137702705e+01 -3.2782155026022579e+01 0 0 0
11966 1962 58 4.0999999999999998e-01 -8.7960739883376320e+00 -2.0265108971470646e+01 -3.4064457413787423e+01 0 0 0
11931 1951 57 -8.1999999999999995e-01 -1.5866910295165653e+00 -2.3023179656752411e+01 -3.6962757570178859e+01 0 0 0
12219 2047 57 -8.1999999999999995e-01 -4.9167055452557484e+00 -2.4513463163497256e+01 -3.3214914741717024e+01 0 0 0
12221 2047 58 4.0999999999999998e-01 -5.2527466934668290e+00 -2.3574060854510329e+01 -3.3147068368495901e+01 0 0 0
11933 1951 58 4.0999999999999998e-01 -1.6089465554862556e+00 -2.3765801369163622e+01 -3.6293409078149196e+01 0 0 0
12220 2047 58 4.0999999999999998e-01 -3.9298304935193791e+00 -2.4527408836979713e+01 -3.3053977600364647e+01 0 0 0
12490 2137 58 4.0999999999999998e-01 -2.7852116515524870e+00 -2.0747477267787396e+01 -3.4083481364716853e+01 0 0 0
12201 2041 57 -8.1999999999999995e-01 -4.7453773182442198e+00 -2.7322128166351160e+01 -3.3262334205869841e+01 0 0 0
12489 2137 57 -8.1999999999999995e-01 -2.8872606615123821e+00 -2.1712262884890176e+01 -3.3841041016970507e+01 0 0 0
11967 1963 57 -8.1999999999999995e-01 -5.5265295454921350e+00 -2.1775908604886585e+01 -3.2882546784433089e+01 0 0 0
11969 1963 58 4.0999999999999998e-01 -5.3065885608777812e+00 -2.1070830125532218e+01 -3.2208379850896748e+01 0 0 0
11968 1963 58 4.0999999999999998e-01 -6.4814120102433250e+00 -2.1682048275254772e+01 -3.3164339742121086e+01 0 0 0
11955 1959 57 -8.1999999999999995e-01 -4.1130654312546326e+00 -2.2378860318106057e+01 -3.7374484207142224e+01 0 0 0
12491 2137 58 4.0999999999999998e-01 -3.8555441169132294e+00 -2.1921509224277209e+01 -3.3704435935010942e+01 0 0 0
11946 1956 57 -8.1999999999999995e-01 -7.6633672723457309e+00 -2.7646762318392049e+01 -3.5717978912757346e+01 0 0 0
12202 2041 58 4.0999999999999998e-01 -4.3844076926438724e+00 -2.7619046531406440e+01 -3.4146392461498252e+01 0 0 0
3836 72 16 4.0000000000000002e-01 -7.0824962037510106e+00 -2.3680984847234839e+01 -2.9664602152360693e+01 0 0 0
12203 2041 58 4.0999999999999998e-01 -4.8420865812429668e+00 -2.6326822411689800e+01 -3.3258517578595324e+01 0 0 0
11900 1940 58 4.0999999999999998e-01 -6.8985728602581275e+00 -2.2082694966153980e+01 -3.6232286238065356e+01 0 1 0
11898 1940 57 -8.1999999999999995e-01 -6.9213561462685718e+00 -2.3069279014027362e+01 -3.6070623916839224e+01 0 1 0
12210 2044 57 -8.1999999999999995e-01 -1.2602670712917536e+00 -2.4997255354072081e+01 -3.4998375159256987e+01 0 0 0
10373 1431 58 4.0999999999999998e-01 -2.6750084831374668e+01 -1.8867326769488866e+01 -3.2275216490858512e+01 0 0 0
3413 64 3 -6.9999999999999996e-01 -2.6299569985472264e+01 -1.9644297814711442e+00 -2.1104756031980365e+01 1 0 0
12212 2044 58 4.0999999999999998e-01 -1.1302804835668496e+00 -2.4462593587962086e+01 -3.4163356614670462e+01 0 0 0
12213 2045 57 -8.1999999999999995e-01 -2.6856013521949400e+00 -2.1692501086526995e+01 -3.0817477327849325e+01 0 0 0
12215 2045 58 4.0999999999999998e-01 -2.4204669701614989e+00 -2.2177499697447338e+01 -3.1650841581185603e+01 0 0 0
12214 2045 58 4.0999999999999998e-01 -3.4894473034499072e+00 -2.1126935065080435e+01 -3.1001812740663059e+01 0 0 0
10364 1428 58 4.0999999999999998e-01 -2.6295087837790177e+01 -2.2095715213285899e+01 -2.4437179471769436e+01 0 0 0
11975 1965 58 4.0999999999999998e-01 -6.4651598926301581e+00 -1.7566077858039051e+01 -3.5890576190339686e+01 0 0 0
11935 1952 58 4.0999999999999998e-01 -7.6248137681667671e+00 -2.8002148449805908e+01 -3.1017869545767294e+01 0 0 0
12211 2044 58 4.0999999999999998e-01 -7.6287906225624269e-01 -2.5861437741274276e+01 -3.4922224836388679e+01 0 0 0
11973 1965 57 -8.1999999999999995e-01 -6.5285067224990243e+00 -1.7341179641592753e+01 -3.6862907451886670e+01 0 0 0
12229 2050 58 4.0999999999999998e-01 -2.6482680780488757e+00 -1.9348737446818468e+01 -3.6523843112425602e+01 0 0 0
11974 1965 58 4.0999999999999998e-01 -6.3024319783528853e+00 -1.6376454341055091e+01 -3.6997805017145225e+01 0 0 0
12347 2089 58 4.0999999999999998e-01 -5.4921870707178861e+00 -2.8496523628846759e-01 -3.4029516391493345e+01 0 0 0
12230 2050 58 4.0999999999999998e-01 -2.3017829464884159e+00 -1.9077898058553476e+01 -3.4950864149872658e+01 0 0 0
12453 2125 57 -8.1999999999999995e-01 -7.4264080431040469e-01 -2.3122599592385399e+01 -3.2786686559581426e+01 0 1 0
8681 867 58 4.0999999999999998e-01 -1.7922025330423708e-01 -2.6697682786063528e+01 -3.7375406439838173e+01 0 0 1
12228 2050 57 -8.1999999999999995e-01 -2.9894458256996224e+00 -1.8961149989042124e+01 -3.5667459413221401e+01 0 0 0
12267 2063 57 -8.1999999999999995e-01 -4.9021361127404859e+00 -2.0047543317403811e+01 -3.0959077421082366e+01 0 0 0
8682 868 57 -8.1999999999999995e-01 -2.0156805962136737e+00 -1.9363815418591962e+01 -3.8061445779145821e+01 0 0 1
8399 773 58 4.0999999999999998e-01 -7.8916625748329672e+00 -2.0199093837786613e+01 -3.7747843162288675e+01 0 0 1
12526 2149 58 4.0999999999999998e-01 -1.5065056884053263e+00 -1.4203312468705136e+01 -3.4834496936183463e+01 0 0 0
12195 2039 57 -8.1999999999999995e-01 -6.2829264934208595e-02 -2.8095578673364756e+01 -3.4394870546541007e+01 0 0 0
12503 2141 58 4.0999999999999998e-01 -3.3583855782019185e+00 -2.2062485605844014e+01 -2.8963886442995701e+01 0 0 0
12305 2075 58 4.0999999999999998e-01 -4.0453784261821717e+00 -7.2783600193626974e+00 -3.8652977203062008e+01 0 0 0
12268 2063 58 4.0999999999999998e-01 -4.6211685064262902e+00 -1.9098446116917472e+01 -3.1101468322469444e+01 0 0 0
12269 2063 58 4.0999999999999998e-01 -5.3119592805607034e+00 -2.0141815976948028e+01 -3.0051785584961394e+01 0 0 0
3679 69 3 -8.0000000000000004e-01 -2.9572105327822884e+00 -2.8269503071281128e+00 -2.5059872844519941e+01 0 0 0
12505 2142 58 4.0999999999999998e-01 -2.2233662647392123e+00 -1.7488036854936340e+01 -3.0956525278528865e+01 0 0 0
8443 788 58 4.0999999999999998e-01 -6.1324971002357955e+00 -1.9171130626515094e+01 -3.7553898120291471e+01 0 0 1