ITEM: TIMESTEP
20000
ITEM: NUMBER OF ATOMS
14144
ITEM: BOX BOUNDS pp pp pp
-26.7631 26.7631
-28.2269 28.2269
-38.8469 38.8469
ITEM: ATOMS id type xu yu zu 
10578 57 -24.833 -19.827 -36.022 
10579 58 -24.682 -20.814 -36.061 
10580 58 -24.942 -19.543 -35.069 
10605 57 -24.391 -22.535 -36.268 
10606 58 -23.681 -22.149 -36.857 
10607 58 -24.401 -23.530 -36.366 
10864 58 -21.877 -23.089 -37.335 
10877 58 -19.576 -23.761 -37.533 
10863 57 -21.910 -24.002 -36.927 
10865 58 -22.366 -23.953 -36.038 
10602 57 -24.765 -25.507 -36.565 
10604 58 -24.373 -26.427 -36.586 
11409 57 -21.854 -21.431 -32.884 
11183 58 -22.838 -19.977 -30.525 
10617 57 -22.070 -24.031 -34.030 
10619 58 -21.852 -23.056 -33.974 
10618 58 -22.894 -24.221 -33.496 
10603 58 -25.745 -25.557 -36.760 
10871 58 -22.193 -24.835 -29.560 
10870 58 -22.160 -26.059 -30.642 
10869 57 -21.896 -25.109 -30.475 
10641 57 -25.864 -22.103 -33.848 
11147 58 -20.084 -21.658 -38.094 
10643 58 -25.404 -22.763 -33.254 
12455 58 -0.342 33.525 -33.037 
6493 58 -21.358 -25.834 39.886 
6492 57 -21.026 -26.117 38.986 
5059 1 -6.436 -0.221 -21.979 
11181 57 -23.331 -19.187 -30.889 
11182 58 -23.074 -18.368 -30.377 
11422 58 -21.699 -18.860 -35.269 
11421 57 -21.149 -19.444 -34.671 
10904 58 -24.550 -23.915 -31.459 
10903 58 -24.399 -25.005 -32.666 
10902 57 -24.351 -24.034 -32.432 
11411 58 -22.594 -21.102 -32.297 
11410 58 -21.491 -20.670 -33.422 
11141 58 -20.643 -22.846 -32.203 
11140 58 -20.390 -23.911 -30.991 
11139 57 -19.979 -23.178 -31.533 
11431 58 -15.069 -21.575 -38.501 
11138 58 -21.194 -26.900 -32.801 
10575 57 -22.741 -27.807 -31.362 
10881 57 -18.969 -20.159 -30.314 
10882 58 -19.560 -19.832 -31.052 
11136 57 -20.845 -26.638 -33.701 
10914 57 -24.788 -19.320 -33.376 
10915 58 -24.181 -19.318 -32.582 
11423 58 -20.280 -19.656 -35.119 
11137 58 -21.230 -25.753 -33.964 
7623 57 -10.066 -14.808 40.416 
8442 57 -6.452 -21.970 39.274 
7332 57 -22.145 -21.397 39.879 
10883 58 -18.177 -20.629 -30.705 
10868 58 -19.024 -25.714 -32.968 
10866 57 -18.135 -26.043 -32.651 
10875 57 -18.599 -23.781 -37.323 
11680 58 -17.495 -27.793 -32.640 
7904 58 -19.310 -15.171 39.286 
12537 57 -0.448 -9.623 -33.869 
10472 58 -26.548 -1.762 -37.622 
10642 58 -25.294 -21.923 -34.650 
7334 58 -22.157 -20.410 40.035 
12303 57 -3.998 -7.613 -38.590 
6761 58 -25.028 -19.422 39.900 
6744 57 -25.585 -27.994 40.077 
10852 58 -24.915 -26.163 -34.719 
12275 58 -5.490 -7.697 -37.869 
7333 58 -22.327 -21.585 38.914 
7034 58 -22.638 -26.913 42.411 
10329 57 -25.552 -26.410 -28.979 
7032 57 -22.731 -27.511 41.614 
10326 57 -25.408 -23.715 -29.593 
10327 58 -25.372 -22.874 -29.053 
10853 58 -25.176 -27.474 -33.779 
10851 57 -24.843 -26.531 -33.792 
11246 58 -11.767 -1.220 -27.946 
11429 58 -16.188 -19.595 -32.742 
11427 57 -17.088 -20.014 -32.622 
12254 58 -1.067 -16.617 -28.871 
11146 58 -19.302 -20.458 -37.310 
11228 58 -24.690 -2.376 -35.719 
12168 57 -10.426 28.984 -36.930 
10867 58 -17.407 -25.561 -33.139 
10876 58 -18.089 -23.337 -38.060 
6746 58 -25.185 -27.287 39.494 
8082 57 -9.897 32.133 45.523 
12188 58 -11.449 30.167 -30.806 
11130 57 -17.954 -23.192 -34.699 
11131 58 -17.156 -23.650 -34.307 
11132 58 -18.064 -23.472 -35.652 
11151 57 -15.827 -19.333 -35.079 
11152 58 -15.332 -20.160 -34.810 
11155 58 -18.221 -22.758 -31.571 
11403 57 -13.228 -23.917 -32.640 
11404 58 -12.905 -24.706 -32.118 
11405 58 -12.499 -23.594 -33.244 
11678 58 -14.330 -20.363 -31.929 
11154 57 -17.244 -22.798 -31.360 
12515 58 -0.114 -11.609 -33.354 
12186 57 -11.999 30.332 -31.625 
8084 58 -10.362 32.540 44.737 
11156 58 -16.806 -23.491 -31.932 
11950 58 -15.796 -25.347 -34.331 
11424 57 -14.950 -21.630 -30.859 
11425 58 -15.890 -21.855 -31.115 
11400 57 -11.213 -23.536 -34.497 
12187 58 -12.039 29.496 -32.173 
8083 58 -10.522 31.512 45.996 
11402 58 -11.137 -22.729 -35.082 
11949 57 -15.866 -24.663 -33.604 
11717 58 -13.762 -23.439 -37.616 
11426 58 -14.548 -22.395 -30.356 
11670 57 -11.876 -20.051 -33.707 
11951 58 -14.971 -24.539 -33.176 
10747 58 -26.598 -3.490 -34.077 
11432 58 -15.412 -20.566 -37.264 
12345 57 -5.207 -0.140 -34.364 
11671 58 -10.940 -19.942 -33.372 
11386 58 -12.279 -21.827 -37.114 
11385 57 -11.762 -21.428 -36.357 
11672 58 -11.863 -20.545 -34.577 
11935 58 -9.160 -27.281 -30.789 
8679 57 -0.107 -24.903 40.064 
11401 58 -11.671 -24.270 -34.999 
8684 58 -2.510 -19.597 39.096 
11387 58 -10.869 -21.122 -36.688 
11682 57 -8.486 -27.529 -32.315 
11673 57 -14.997 -21.933 -34.886 
11675 58 -14.324 -21.973 -34.147 
11977 58 -12.681 -19.675 -37.150 
11674 58 -14.897 -22.737 -35.472 
11417 58 -11.296 -26.352 -34.621 
11416 58 -11.888 -26.763 -36.086 
7602 57 -14.199 -24.207 41.515 
12318 57 -3.835 -0.132 -38.363 
11398 58 -13.434 -26.707 -29.166 
12274 58 -6.528 -6.761 -37.025 
11415 57 -12.004 -26.157 -35.300 
7603 58 -14.979 -24.822 41.402 
7604 58 -13.359 -24.744 41.589 
11120 58 -15.795 -27.410 -35.506 
12216 57 -9.539 -20.407 -32.303 
12217 58 -8.858 -21.020 -32.704 
12218 58 -9.351 -20.291 -31.328 
12170 58 -9.873 29.398 -36.207 
11948 58 -9.156 -26.387 -33.747 
12237 57 -8.705 -20.060 -29.732 
12238 58 -8.983 -19.103 -29.820 
10328 58 -26.295 -23.781 -30.050 
11118 57 -16.079 -26.568 -35.965 
12169 58 -9.972 29.111 -37.811 
11981 58 -10.597 -17.966 -33.084 
11976 57 -12.537 -18.691 -37.251 
8157 57 -9.980 -17.566 40.154 
7544 58 -16.366 30.611 40.037 
7624 58 -9.671 -14.232 39.700 
11927 58 -7.077 -23.484 -37.725 
11953 58 -4.912 -28.177 -31.341 
12225 57 -6.404 -26.896 -37.023 
12338 58 -4.580 0.006 -31.257 
3410 30 26.926 -2.677 -22.192 
11899 58 -5.734 32.532 -34.578 
11683 58 -7.495 -27.609 -32.204 
11947 58 -8.388 -25.908 -35.106 
11959 58 -3.123 -25.445 -37.358 
11957 58 -2.047 -22.007 -37.454 
11942 58 -7.424 -23.007 -33.596 
11958 57 -2.806 -25.092 -38.238 
11960 58 -2.850 -24.093 -38.232 
11940 57 -7.835 -22.490 -32.845 
11941 58 -8.373 -23.107 -32.270 
11966 58 -8.477 -19.205 -35.253 
11931 57 -0.830 -22.187 -36.202 
12219 57 -4.857 -24.451 -33.116 
12221 58 -4.868 -23.550 -32.682 
11933 58 -0.500 -23.130 -36.153 
12220 58 -3.928 -24.820 -33.097 
12490 58 -2.150 -22.021 -34.630 
12201 57 -5.572 -27.131 -32.266 
12489 57 -2.337 -22.040 -33.648 
11956 58 -3.110 -21.535 -38.601 
11967 57 -5.130 -21.709 -32.832 
11969 58 -4.900 -20.857 -32.361 
11968 58 -6.115 -21.741 -33.003 
11955 57 -2.656 -22.322 -38.183 
12491 58 -3.293 -21.797 -33.485 
11946 57 -9.181 -26.400 -34.747 
12202 58 -5.669 -27.732 -33.060 
12239 58 -7.790 -20.106 -29.331 
3836 16 -7.035 -23.459 -29.704 
12273 57 -6.270 -7.702 -37.243 
12203 58 -5.366 -26.202 -32.573 
11900 58 -6.662 32.746 -35.905 
11898 57 -6.652 32.759 -34.905 
11936 58 -9.747 -27.855 -29.378 
12210 57 -2.371 -25.643 -33.042 
8922 57 -3.529 -26.723 41.779 
8923 58 -3.100 -27.625 41.733 
12212 58 -1.715 -25.266 -32.388 
12213 57 -2.138 -21.592 -30.702 
12215 58 -1.377 -21.707 -30.063 
12214 58 -1.838 -21.834 -31.624 
8924 58 -3.577 -26.425 42.732 
11975 58 -5.882 -20.319 -35.831 
12583 58 -0.429 -8.028 -29.954 
12227 58 -6.673 -25.996 -37.365 
12211 58 -1.906 -26.294 -33.642 
11973 57 -6.668 -19.936 -36.315 
12229 58 -2.078 -18.891 -36.405 
11974 58 -6.388 -19.110 -36.805 
12494 58 -1.130 -25.227 -28.873 
11925 57 -7.422 -24.387 -37.470 
12230 58 -1.196 -18.654 -35.051 
8189 58 -6.718 -16.983 39.125 
10840 58 -26.589 28.125 -31.160 
8681 58 -0.895 -25.209 39.530 
12228 57 -2.076 -18.967 -35.408 
12231 57 -3.972 -17.556 -33.874 
12232 58 -3.971 -18.137 -33.061 
12233 58 -3.485 -18.017 -34.615 
12267 57 -4.840 -19.261 -31.618 
6013 15 -2.239 -8.675 -19.611 
8398 58 -9.378 -19.304 39.885 
8682 57 -1.907 -18.964 39.582 
11932 58 -0.133 -21.570 -35.839 
8683 58 -1.079 -18.811 39.042 
3411 2 26.823 -1.692 -23.276 
8399 58 -8.510 -20.479 40.617 
10970 58 -26.382 -4.710 -32.461 
12195 57 -0.750 -27.496 -34.525 
8397 57 -9.307 -20.289 40.043 
12240 57 -0.941 -14.908 -38.514 
12226 58 -5.524 -26.826 -36.555 
12503 58 -3.385 -22.188 -29.785 
12224 58 -5.553 -19.520 -29.045 
12222 57 -5.945 -20.363 -28.675 
12223 58 -5.269 -21.098 -28.729 
11926 58 -8.420 -24.392 -37.530 
12234 57 -0.278 -21.585 -28.141 
10681 58 -25.949 -15.781 -33.763 
10383 57 -24.729 -11.837 -33.421 
11149 58 -20.669 -18.826 -33.089 
11148 57 -20.387 -18.412 -32.223 
11150 58 -21.024 -17.680 -31.981 
7903 58 -19.753 -14.185 40.511 
12508 58 -0.290 -23.042 -25.302 
10384 58 -23.927 -11.291 -33.664 
10905 57 -22.620 -18.871 -37.273 
10906 58 -22.818 -17.892 -37.235 
10898 58 -26.493 -18.589 -29.680 
11919 57 -11.763 28.296 -33.181 
10666 58 -22.051 -9.838 -38.306 
10665 57 -22.304 -9.382 -37.453 
10651 58 -25.450 -12.950 -36.799 
10926 57 -23.049 -9.996 -34.837 
10916 58 -25.375 -18.511 -33.349 
11199 57 -23.402 -16.809 -29.150 
11200 58 -22.489 -16.923 -28.758 
11178 57 -20.799 -11.999 -34.264 
11180 58 -19.827 -12.158 -34.433 
11201 58 -24.063 -16.649 -28.417 
10650 57 -25.135 -13.813 -37.195 
11177 58 -22.417 -16.473 -33.357 
11175 57 -22.546 -16.771 -34.302 
11176 58 -21.656 -16.857 -34.750 
11179 58 -21.011 -12.204 -33.309 
12074 58 -5.591 -1.074 -27.024 
10662 57 -19.200 -15.034 -32.955 
7625 58 -11.062 -14.823 40.321 
11204 58 -21.389 -13.289 -31.592 
10925 58 -21.148 -12.515 -36.150 
11447 58 -19.763 -16.026 -36.246 
10664 58 -18.942 -14.169 -33.385 
10663 58 -18.576 -15.756 -33.256 
11203 58 -21.708 -11.848 -30.893 
4654 2 -22.246 -11.210 -29.723 
10924 58 -21.729 -12.884 -37.631 
11202 57 -21.287 -12.298 -31.680 
10919 58 -17.229 -17.235 -34.563 
11459 58 -20.817 -15.780 -32.399 
10923 57 -20.942 -12.964 -37.019 
10670 58 -23.218 -16.325 -35.829 
11458 58 -21.843 -15.348 -31.203 
11457 57 -21.602 -16.070 -31.851 
10667 58 -22.987 -8.676 -37.642 
10927 58 -23.013 -9.739 -35.802 
7363 58 -23.539 -13.298 39.539 
10907 58 -23.221 -19.358 -36.639 
10669 58 -24.425 -15.615 -36.669 
11250 57 -25.951 -11.276 -36.462 
10928 58 -22.256 -10.563 -34.613 
10668 57 -23.631 -16.219 -36.734 
10652 58 -25.567 -13.949 -38.086 
11251 58 -25.310 -10.888 -35.800 
10943 58 -17.510 -11.971 -34.731 
10941 57 -17.953 -12.846 -34.535 
10942 58 -17.414 -13.589 -34.932 
11445 57 -20.127 -16.626 -35.533 
11446 58 -19.387 -16.900 -34.918 
11488 58 -21.322 -10.175 -31.637 
10654 58 -25.277 -11.895 -30.146 
10653 57 -25.558 -12.383 -30.972 
11252 58 -25.826 -10.831 -37.348 
10917 57 -17.937 -17.176 -33.860 
10918 58 -17.900 -17.989 -33.279 
10367 58 -25.431 -14.142 -35.424 
10682 58 -26.524 -16.938 -32.763 
10921 58 -22.500 -15.942 -38.104 
11489 58 -19.888 -9.666 -32.229 
11487 57 -20.611 -9.475 -31.566 
10680 57 -26.064 -16.766 -33.634 
10946 58 -23.789 -8.721 -33.994 
10385 58 -24.704 -12.052 -32.445 
12524 58 -0.076 -11.077 -28.698 
11742 57 -18.564 -8.688 -33.699 
10655 58 -26.179 -13.127 -30.726 
10648 58 -20.202 -14.393 -28.984 
10897 58 -25.033 -19.316 -29.761 
12329 58 -8.811 -1.342 -33.760 
11723 58 -11.051 -10.998 -38.355 
11153 58 -15.186 -18.569 -35.149 
11676 57 -14.192 -19.646 -32.612 
11198 58 -15.994 -17.012 -31.207 
8158 58 -10.866 -17.906 40.469 
11428 58 -17.064 -20.957 -32.955 
11470 58 -17.827 -12.599 -32.424 
11469 57 -17.353 -12.696 -31.549 
11677 58 -13.315 -19.785 -33.071 
11196 57 -15.214 -16.488 -31.551 
11197 58 -14.774 -16.993 -32.293 
11157 57 -17.843 -17.181 -30.465 
11978 58 -13.201 -18.197 -36.690 
11471 58 -16.587 -12.055 -31.511 
11450 58 -13.427 -14.981 -37.391 
11979 57 -10.741 -17.224 -32.429 
11980 58 -10.365 -17.486 -31.540 
11443 58 -17.829 -13.882 -30.412 
11476 58 -14.526 -13.183 -38.247 
11944 58 -15.282 -16.577 -36.309 
11943 57 -14.497 -17.107 -35.988 
11962 58 -13.282 -15.429 -33.149 
11961 57 -13.064 -16.339 -33.501 
11945 58 -14.218 -16.777 -35.086 
11963 58 -12.212 -16.661 -33.088 
11442 57 -18.171 -14.456 -29.669 
11690 58 -17.514 -20.089 -35.352 
11689 58 -18.336 -21.500 -35.370 
11688 57 -18.402 -20.515 -35.526 
11479 58 -13.063 -10.621 -35.534 
11478 57 -13.987 -10.654 -35.916 
11164 58 -14.514 -14.166 -35.109 
11468 58 -17.508 -15.492 -36.781 
11691 57 -13.114 -12.996 -32.722 
11693 58 -13.199 -12.027 -32.489 
11692 58 -13.156 -13.544 -31.887 
11438 58 -10.799 -12.539 -34.559 
11168 58 -13.959 -15.544 -30.963 
11163 57 -14.582 -13.557 -35.898 
11165 58 -14.535 -12.606 -35.592 
11166 57 -13.179 -14.933 -30.830 
11167 58 -13.136 -14.652 -29.871 
11436 57 -11.587 -12.982 -34.986 
11437 58 -12.291 -13.149 -34.295 
11466 57 -16.512 -15.566 -36.839 
11467 58 -16.139 -14.737 -37.255 
11710 58 -15.999 -15.535 -33.258 
11709 57 -15.613 -14.707 -33.666 
11752 58 -11.704 -12.504 -36.795 
11217 57 -15.586 -10.709 -31.276 
11218 58 -15.627 -10.641 -30.279 
11751 57 -12.001 -12.627 -37.742 
11714 58 -11.297 -14.092 -30.767 
11741 58 -12.432 -9.894 -32.321 
11219 58 -14.637 -10.619 -31.578 
11480 58 -13.959 -10.392 -36.880 
11711 58 -15.800 -13.925 -33.072 
11740 58 -12.731 -10.442 -30.812 
11739 57 -13.071 -10.410 -31.752 
11759 58 -9.311 -9.929 -30.285 
11473 58 -17.120 -11.536 -28.782 
11707 58 -9.439 -13.159 -31.176 
11712 57 -10.718 -13.921 -29.970 
5842 2 -9.447 -17.720 -29.957 
11193 57 -16.692 -10.366 -35.112 
11159 58 -18.165 -16.254 -30.275 
11472 57 -16.639 -10.660 -28.766 
11713 58 -10.707 -14.733 -29.386 
11725 58 -11.654 -12.127 -29.241 
5838 15 -12.349 -17.738 -29.273 
11724 57 -12.141 -11.280 -29.032 
11721 57 -10.511 -10.177 -38.535 
8159 58 -9.951 -16.572 40.251 
11224 58 -17.915 -9.985 -38.080 
11195 58 -16.951 -9.841 -35.923 
11743 58 -18.043 -9.452 -34.079 
11462 58 -15.723 -17.984 -38.234 
11158 58 -18.514 -17.658 -31.033 
12538 58 -1.136 -9.401 -34.560 
12523 58 -1.228 -11.821 -29.585 
11117 58 -18.934 -28.105 -37.463 
12262 58 -1.333 -13.704 -30.678 
11964 57 -8.821 -18.272 -35.151 
11965 58 -9.173 -17.947 -36.029 
11119 58 -17.073 -26.564 -36.069 
5941 16 -26.548 -4.703 -26.650 
12522 57 -0.848 -10.935 -29.318 
10366 58 -25.575 -13.315 -34.023 
11758 58 -8.947 -10.964 -31.495 
12279 57 -9.368 -11.279 -34.104 
12281 58 -8.994 -11.636 -33.248 
12255 57 -1.402 -14.068 -32.308 
10841 58 -25.836 28.634 -29.803 
12280 58 -8.619 -11.025 -34.716 
11757 57 -8.884 -10.015 -31.185 
8188 58 -6.419 -16.528 40.665 
8713 58 -3.520 -15.086 40.873 
11719 58 -6.838 -14.967 -32.803 
12299 58 -7.149 -12.607 -38.065 
11708 58 -7.970 -13.233 -31.886 
11720 58 -5.727 -13.822 -32.452 
11706 57 -8.805 -12.691 -31.792 
11718 57 -6.700 -14.053 -32.421 
12001 58 -4.366 -11.838 -38.085 
12003 57 -8.055 -13.713 -35.593 
12004 58 -8.524 -13.259 -34.836 
12005 58 -8.731 -14.070 -36.238 
11985 57 -5.447 -14.914 -35.739 
11986 58 -6.327 -14.444 -35.675 
11987 58 -5.382 -15.601 -35.015 
12007 58 -4.284 -12.670 -33.085 
11989 58 -5.503 -9.789 -35.152 
11991 57 -6.972 -16.699 -33.356 
11992 58 -6.187 -17.116 -33.814 
11993 58 -7.810 -17.169 -33.635 
11994 57 -7.326 -16.606 -30.666 
11995 58 -8.274 -16.826 -30.435 
11996 58 -7.186 -16.725 -31.649 
12006 57 -4.077 -13.270 -32.313 
12008 58 -3.096 -13.463 -32.293 
12268 58 -3.931 -19.393 -31.221 
12569 58 -1.508 -9.712 -32.207 
12567 57 -2.346 -9.809 -31.669 
5997 16 -6.045 -10.910 -30.701 
12536 58 -2.144 -15.353 -35.168 
12298 58 -5.956 -13.607 -37.571 
12297 57 -6.177 -12.669 -37.838 
12534 57 -1.894 -15.787 -34.302 
8714 58 -1.973 -14.809 40.428 
8712 57 -2.621 -14.784 41.189 
12024 57 -4.964 -4.192 -38.164 
12535 58 -2.692 -16.252 -33.919 
11755 58 -6.638 -11.112 -36.476 
12550 58 -3.673 -11.353 -35.088 
12269 58 -5.478 -18.973 -30.904 
11754 57 -7.376 -10.647 -35.987 
11756 58 -7.537 -9.750 -36.399 
12257 58 -1.564 -14.715 -33.053 
5058 12 -5.830 -1.169 -21.395 
8187 57 -6.587 -17.307 40.062 
12000 57 -3.801 -11.013 -38.109 
12551 58 -4.824 -12.494 -35.289 
12549 57 -4.360 -11.912 -34.622 
12568 58 -2.128 -9.734 -30.696 
11984 58 -5.814 -17.324 -29.490 
12002 58 -2.838 -11.265 -38.008 
12504 57 -2.204 -18.758 -31.100 
12272 58 -9.585 -8.878 -37.312 
12286 58 -1.986 -9.935 -36.975 
12263 58 -2.195 -14.339 -29.445 
10954 58 -26.437 -0.244 -36.312 
12265 58 -6.462 -14.487 -30.348 
12521 58 -4.444 -14.746 -29.449 
12520 58 -3.781 -16.222 -29.231 
12519 57 -3.590 -15.243 -29.295 
12261 57 -1.549 -13.621 -29.705 
7302 57 -19.006 -26.558 41.666 
7304 58 -19.551 -25.837 41.239 
12507 57 -0.608 -23.517 -26.122 
3872 15 -1.200 -22.389 -20.276 
12835 58 -0.058 -4.735 -31.184 
7589 58 -12.630 -26.461 39.666 
12256 58 -0.772 -13.355 -32.616 
11420 58 -10.410 -23.325 -38.075 
10434 57 -26.264 -0.214 -28.176 
11227 58 -24.450 -2.791 -37.281 
10458 57 -19.856 -1.505 -31.662 
12207 57 -3.568 -27.958 -28.055 
11239 58 -20.545 -3.322 -36.896 
11004 57 -20.092 -2.187 -34.364 
12025 58 -4.645 -5.140 -38.186 
10661 58 -26.016 -8.539 -32.729 
5060 15 -4.377 -1.445 -21.350 
12362 58 -2.310 -0.322 -31.950 
10746 57 -26.132 -2.872 -34.710 
7453 58 -25.402 -7.448 39.408 
11006 58 -20.608 -1.444 -34.791 
7452 57 -25.073 -8.272 39.869 
11430 57 -15.163 -20.617 -38.231 
3061 1 -6.733 -5.740 -21.396 
10732 58 -22.057 -5.407 -36.464 
11284 58 -24.430 -3.087 -33.092 
10944 57 -24.000 -7.816 -33.623 
10945 58 -23.209 -7.469 -33.119 
11209 58 -25.918 -4.643 -38.449 
10936 58 -24.635 -6.611 -34.786 
10937 58 -25.451 -5.228 -35.087 
10935 57 -24.935 -5.979 -35.500 
10690 58 -25.541 -7.760 -29.212 
10957 58 -24.974 -6.070 -30.964 
10958 58 -24.358 -5.062 -32.091 
10975 58 -21.470 -6.105 -29.104 
10956 57 -25.185 -5.325 -31.596 
10962 57 -21.618 -4.312 -31.261 
10964 58 -21.222 -3.692 -30.585 
10963 58 -22.404 -3.873 -31.697 
11226 57 -24.114 -2.231 -36.523 
11210 58 -25.663 -5.685 -37.218 
10985 58 -20.637 -4.302 -34.734 
10983 57 -20.749 -5.259 -35.003 
11254 58 -21.319 -7.392 -31.891 
10984 58 -20.806 -5.831 -34.185 
11255 58 -21.873 -5.891 -31.561 
11253 57 -21.982 -6.690 -32.152 
11208 57 -25.768 -5.602 -38.209 
10733 58 -23.579 -5.979 -36.613 
11213 58 -19.425 -8.366 -35.259 
11496 57 -18.086 -5.799 -36.490 
11498 58 -18.089 -5.362 -35.590 
10731 57 -22.802 -5.588 -37.106 
11212 58 -20.434 -8.614 -36.519 
11211 57 -19.556 -8.225 -36.240 
7454 58 -25.342 -8.245 40.832 
11285 58 -23.246 -2.153 -32.466 
11283 57 -23.650 -3.067 -32.467 
11497 58 -18.791 -6.507 -36.519 
10932 57 -20.683 -7.835 -29.376 
10934 58 -20.452 -8.368 -30.190 
10933 58 -21.559 -8.147 -29.009 
5950 2 -20.880 -2.681 -29.610 
10459 58 -20.329 -1.969 -30.913 
11240 58 -21.162 -1.828 -37.129 
11005 58 -20.047 -2.037 -33.376 
10949 58 -19.169 -8.247 -28.671 
11238 57 -20.732 -2.612 -37.576 
5131 16 -18.292 -4.457 -30.857 
11216 58 -18.098 -7.747 -30.510 
11744 58 -18.095 -8.333 -32.890 
10965 57 -26.623 -8.639 -35.443 
10751 58 -24.537 -0.529 -36.887 
5056 15 -7.852 -1.986 -20.546 
8204 58 -9.102 -11.735 39.443 
11206 58 -19.330 -5.524 -38.092 
3295 16 -13.287 28.398 -26.138 
12072 57 -6.468 -1.551 -26.961 
11418 57 -10.057 -24.174 -37.681 
11787 57 -10.092 -2.773 -28.435 
11766 57 -10.932 -5.238 -38.116 
12052 58 -15.663 -4.919 -38.051 
10978 58 -15.931 -1.558 -34.063 
11245 58 -11.954 -0.403 -29.348 
12051 57 -14.827 -5.181 -38.533 
11194 58 -15.702 -10.504 -35.107 
11463 57 -11.644 -10.085 -34.050 
11464 58 -10.719 -10.466 -34.042 
10989 57 -15.721 -1.847 -35.936 
11525 58 -13.758 -3.259 -38.165 
12020 58 -14.233 -8.868 -32.997 
11225 58 -18.202 -8.755 -37.045 
11223 57 -17.503 -9.217 -37.590 
11465 58 -11.639 -9.207 -34.528 
11769 57 -15.081 -7.962 -29.896 
11780 58 -13.266 -0.827 -31.268 
5133 16 -17.663 -2.764 -29.383 
11495 58 -17.844 -3.938 -37.202 
11493 57 -17.269 -3.294 -37.708 
10979 58 -15.280 -1.735 -32.575 
11779 58 -14.735 -0.443 -30.666 
11528 58 -13.666 -0.136 -33.121 
11738 58 -11.717 -7.815 -32.113 
11524 58 -12.671 -2.186 -37.585 
11778 57 -14.244 -0.775 -31.471 
11242 58 -18.655 -3.317 -34.541 
7932 57 -14.519 -9.593 39.180 
7933 58 -15.442 -9.264 39.378 
11486 58 -13.072 -7.910 -38.322 
7450 58 -12.418 -2.789 42.855 
11215 58 -16.653 -7.772 -31.271 
11214 57 -17.644 -7.729 -31.401 
7449 57 -11.889 -1.952 42.997 
11494 58 -16.681 -2.799 -37.069 
11736 57 -11.312 -8.384 -31.397 
11512 58 -15.548 -6.471 -33.816 
11737 58 -10.476 -8.810 -31.744 
12018 57 -14.332 -7.925 -32.681 
11511 57 -15.531 -5.472 -33.764 
12019 58 -13.821 -7.315 -33.287 
10960 58 -11.522 -7.292 -34.745 
10959 57 -12.461 -7.575 -34.941 
10961 58 -12.582 -7.670 -35.929 
11241 57 -17.925 -3.881 -34.157 
11484 57 -12.827 -7.051 -37.871 
11499 57 -11.573 -4.001 -32.183 
11501 58 -12.117 -4.106 -33.016 
11513 58 -16.456 -5.131 -33.593 
11767 58 -11.503 -6.058 -38.139 
11771 58 -14.702 -8.095 -30.812 
11500 58 -10.602 -4.086 -32.407 
11514 57 -12.623 -3.630 -29.636 
11515 58 -12.359 -3.865 -30.571 
11516 58 -11.847 -3.213 -29.164 
5132 16 -15.969 -4.046 -30.608 
11243 58 -17.082 -3.346 -34.104 
5134 8 -17.286 -4.140 -29.888 
11504 58 -11.168 -7.267 -29.923 
11782 58 -14.180 -4.794 -34.491 
11781 57 -13.351 -4.368 -34.854 
11796 57 -11.629 -1.299 -31.324 
11797 58 -10.790 -0.861 -31.646 
11938 58 -5.934 -28.178 -23.561 
11798 58 -11.574 -2.285 -31.486 
11783 58 -13.213 -4.661 -35.801 
11485 58 -13.529 -6.364 -38.058 
12067 58 -11.110 -0.994 -36.789 
12066 57 -10.779 -1.782 -37.309 
10990 58 -14.836 -2.033 -36.363 
11770 58 -14.589 -7.223 -29.435 
12068 58 -10.344 -2.433 -36.688 
11523 57 -13.639 -2.438 -37.607 
11483 58 -9.398 -5.615 -38.552 
11234 58 -13.310 -5.048 -28.908 
11502 57 -11.088 -6.791 -29.047 
11548 58 -14.164 -1.097 -28.295 
11503 58 -11.992 -6.481 -28.753 
10977 57 -16.038 -1.999 -33.172 
11934 57 -9.685 -27.051 -29.970 
12779 58 -0.823 -14.634 -25.545 
8202 57 -8.688 -12.571 39.083 
7587 57 -12.496 -25.616 39.149 
12054 57 -1.875 -3.166 -37.427 
12337 58 -5.794 -0.965 -30.755 
12037 58 -6.241 -4.507 -36.990 
12056 58 -1.914 -4.163 -37.359 
4977 2 -26.405 -24.505 -24.772 
12763 58 -0.107 -18.273 -26.854 
12336 57 -5.525 -0.274 -31.426 
4983 12 -22.313 -23.269 -19.456 
11988 57 -4.979 -8.959 -35.345 
12486 57 -0.043 -24.064 -29.528 
13106 58 -1.709 -1.063 -34.195 
11772 57 -8.804 -4.113 -32.334 
11773 58 -8.474 -4.010 -33.273 
11774 58 -8.631 -3.270 -31.825 
12010 58 -9.885 -4.571 -36.756 
12009 57 -9.696 -4.189 -35.851 
12041 58 -7.032 -2.500 -35.291 
11990 58 -5.406 -8.463 -36.101 
12270 57 -9.171 -8.153 -36.762 
12300 57 -2.290 -1.104 -35.716 
10373 58 -26.680 -19.677 -32.116 
12034 58 -7.798 -7.809 -31.540 
12023 58 -9.405 -7.514 -35.037 
13104 57 -1.528 -1.432 -33.283 
12304 58 -3.293 -8.033 -38.018 
12058 58 -7.766 -1.834 -30.439 
12057 57 -8.657 -1.510 -30.756 
12059 58 -8.531 -0.881 -31.523 
12271 58 -8.522 -7.638 -37.322 
12021 57 -9.705 -7.137 -34.161 
12301 58 -2.098 -1.897 -36.294 
12588 57 -1.646 -5.716 -36.687 
12487 58 -0.112 -23.153 -29.120 
11800 58 -1.440 -0.789 -27.849 
12033 57 -7.401 -7.271 -32.284 
12278 58 -3.642 -9.015 -32.408 
12306 57 -3.836 -3.176 -33.392 
12276 57 -4.440 -8.515 -32.745 
11801 58 -2.271 -1.933 -28.668 
12346 58 -5.380 -0.918 -34.968 
12505 58 -1.877 -19.616 -31.497 
11764 58 -5.005 -2.794 -36.833 
12022 58 -8.912 -6.992 -33.570 
11763 57 -5.406 -2.422 -35.995 
12347 58 -5.435 -0.389 -33.423 
12594 57 -4.338 -5.358 -31.548 
12595 58 -5.294 -5.260 -31.270 
12035 58 -6.454 -7.556 -32.433 
12285 57 -2.317 -9.693 -36.063 
12618 57 -0.003 -3.741 -33.859 
12011 58 -9.994 -4.835 -35.148 
6004 2 -1.534 -7.085 -29.767 
12603 57 -2.712 -3.731 -29.311 
12580 58 -1.324 -6.393 -31.307 
12579 57 -1.591 -5.728 -32.005 
12605 58 -2.878 -3.898 -30.283 
12581 58 -2.588 -5.649 -32.027 
12036 57 -6.766 -4.938 -36.256 
12039 57 -7.892 -2.359 -34.800 
12040 58 -8.632 -2.831 -35.279 
12291 57 -3.701 -5.102 -35.067 
12292 58 -3.510 -4.416 -34.364 
12293 58 -4.618 -4.955 -35.437 
12294 57 -6.714 -5.170 -30.283 
12295 58 -7.498 -5.283 -30.893 
12296 58 -7.033 -5.112 -29.337 
12619 58 -0.804 -4.268 -33.575 
12596 58 -4.239 -6.170 -32.123 
12287 58 -3.263 -9.375 -36.125 
10330 58 -25.778 -26.509 -28.010 
12308 58 -4.384 -3.272 -32.561 
12277 58 -4.516 -8.637 -33.735 
12307 58 -2.992 -2.684 -33.180 
12590 58 -2.398 -5.691 -36.029 
12589 58 -0.774 -5.720 -36.197 
8996 58 -0.950 -6.815 39.891 
12327 57 -9.511 -0.768 -33.333 
7721 58 -13.492 -0.648 39.044 
11765 58 -4.807 -2.623 -35.220 
12038 58 -7.731 -4.976 -36.514 
5999 15 -5.637 -8.999 -29.191 
11788 58 -9.393 -2.315 -28.984 
10365 57 -25.584 -14.224 -34.439 
6000 15 -4.518 -7.904 -29.376 
13105 58 -0.960 -2.251 -33.361 
12073 58 -7.205 -0.882 -26.862 
10911 57 -25.933 -21.488 -27.882 
4120 1 -18.279 -25.186 -19.403 
7902 57 -19.293 -15.041 40.278 
10331 58 -25.622 -25.447 -29.242 
11379 57 -21.255 29.256 -25.721 
5061 15 -3.545 -0.455 -20.465 
11380 58 -22.027 29.328 -26.352 
10888 58 -18.819 -19.559 -28.584 
10571 58 -24.166 28.731 -26.902 
11381 58 -21.026 30.164 -25.370 
10626 57 -21.852 -21.214 -29.887 
11122 58 -22.724 -24.988 -27.186 
10587 57 -22.633 -26.441 -21.208 
10627 58 -21.984 -22.195 -29.742 
10588 58 -22.236 -25.650 -21.675 
10589 58 -22.147 -26.599 -20.348 
10628 58 -20.900 -21.038 -30.134 
11123 58 -21.798 -23.672 -27.462 
11121 57 -22.254 -24.453 -27.888 
10596 57 -21.320 -24.347 -24.784 
10598 58 -21.051 -23.514 -25.268 
10597 58 -22.307 -24.337 -24.624 
10570 58 -23.665 29.432 -28.290 
10885 58 -21.228 -21.185 -26.335 
10884 57 -20.720 -22.046 -26.322 
4196 15 27.715 -19.490 -20.426 
4974 15 -25.038 -26.970 -23.902 
10886 58 -19.748 -21.862 -26.469 
4984 1 -21.788 -23.767 -20.460 
10347 57 -24.033 -22.069 -25.503 
10349 58 -23.996 -23.015 -25.181 
10887 57 -18.963 -19.356 -27.616 
10632 57 -24.641 -20.030 -23.933 
10634 58 -24.201 -20.836 -24.331 
4978 2 -23.893 -24.334 -24.370 
4976 30 -25.291 -24.492 -23.869 
4979 3 -25.787 -23.547 -22.709 
4980 15 -24.725 -23.165 -21.754 
5617 16 -21.667 -21.582 -22.986 
5618 16 -21.957 -19.801 -21.444 
5620 8 -20.989 -20.422 -22.279 
10348 58 -24.572 -22.024 -26.344 
10633 58 -24.497 -19.242 -24.532 
5619 16 -20.047 -20.973 -21.294 
4975 3 -25.529 -25.898 -23.152 
10896 57 -25.908 -19.294 -29.278 
10569 57 -23.445 29.280 -27.326 
10889 58 -18.713 -20.153 -27.066 
5623 3 -17.961 -19.418 -23.284 
5621 15 -20.452 -19.360 -23.172 
4113 2 -18.219 -21.400 -26.496 
4115 3 -18.020 -22.586 -24.349 
4107 16 -17.800 -26.735 -26.461 
4117 14 -17.753 -23.912 -22.107 
4112 30 -17.226 -22.054 -25.644 
4106 16 -19.139 -26.057 -28.364 
4108 8 -17.759 -26.251 -27.838 
11189 58 -22.798 -19.354 -25.897 
11187 57 -21.909 -19.574 -26.299 
5622 15 -19.158 -19.411 -24.058 
10364 58 -26.019 -21.179 -24.327 
10913 58 -25.804 -20.668 -28.440 
12584 58 -0.017 -9.608 -29.924 
4138 15 -17.202 -25.268 -22.611 
4116 15 -17.354 -22.752 -23.055 
8443 58 -6.203 -21.103 39.706 
11695 58 -13.251 -22.756 -28.457 
4105 16 -17.233 -27.395 -28.567 
4143 15 -13.679 -26.306 -20.263 
5628 15 -16.016 -19.419 -21.274 
4109 15 -16.926 -25.066 -28.195 
4111 3 -16.950 -23.537 -26.173 
4142 15 -13.811 -26.677 -21.756 
11696 58 -13.880 -24.248 -28.671 
11694 57 -14.006 -23.274 -28.859 
4140 12 -15.220 -26.733 -22.192 
11699 58 -10.518 -20.983 -24.600 
4110 15 -16.914 -23.638 -27.607 
11397 57 -13.331 -25.810 -28.736 
11399 58 -12.536 -25.820 -28.130 
11414 58 -11.577 -21.118 -27.224 
4114 2 -15.888 -21.581 -25.337 
3728 16 -13.186 -21.070 -23.188 
3731 15 -13.757 -23.549 -23.656 
3732 15 -13.218 -24.119 -24.984 
3733 3 -12.198 -25.097 -24.792 
3734 30 -10.982 -25.049 -25.786 
3735 2 -10.323 -23.694 -25.793 
3736 2 -11.499 -25.586 -27.047 
3737 3 -10.056 -25.999 -24.995 
11697 57 -10.931 -21.378 -25.421 
11698 58 -10.537 -22.281 -25.591 
3730 8 -13.097 -22.501 -22.787 
3729 16 -11.652 -22.714 -22.441 
4139 4 -15.788 -25.539 -22.419 
4141 1 -15.763 -27.760 -22.684 
3835 16 -9.244 -23.818 -28.936 
5848 1 -10.094 -20.112 -23.309 
3727 16 -13.856 -22.640 -21.544 
11413 58 -11.596 -20.920 -28.845 
11412 57 -12.116 -21.248 -28.056 
4118 4 -17.256 -23.609 -20.749 
4144 15 -12.393 -25.759 -19.783 
3738 15 -9.591 -25.679 -23.666 
5834 16 -15.688 -19.455 -28.544 
5850 15 -9.786 -18.859 -20.418 
5627 3 -15.762 -18.957 -22.570 
5837 15 -13.734 -18.404 -29.220 
4119 12 -17.469 -24.248 -19.518 
12208 58 -3.133 -27.105 -28.343 
3683 3 -1.056 -1.284 -23.691 
11145 57 -19.391 -20.943 -38.180 
5893 3 -0.326 -18.676 -23.575 
5896 2 -1.006 -19.343 -21.351 
4981 14 -24.755 -23.387 -20.246 
3743 15 -6.659 -26.822 -20.081 
3848 4 -2.223 -27.099 -22.465 
12501 57 -4.194 -22.486 -29.277 
12029 58 -8.617 -8.366 -26.592 
6010 1 -4.512 -8.112 -23.809 
3870 12 -2.186 -23.007 -21.203 
3765 15 -6.381 -21.745 -20.407 
12502 58 -3.979 -23.318 -28.765 
12302 58 -2.630 -0.353 -36.282 
3764 15 -7.475 -21.510 -21.398 
10991 58 -15.997 -0.907 -36.137 
11439 57 -2.226 -19.504 -28.267 
11441 58 -3.053 -19.245 -28.767 
3742 1 -5.892 -27.485 -22.259 
3869 4 -1.716 -24.008 -21.966 
3868 15 -2.563 -24.630 -23.041 
3838 8 -7.853 -23.936 -28.534 
3839 15 -7.527 -25.299 -28.011 
3760 15 -7.556 -24.459 -23.633 
3763 1 -7.147 -21.601 -23.759 
3837 16 -7.779 -22.974 -27.490 
3840 15 -6.101 -25.765 -27.494 
3841 3 -5.692 -25.057 -26.377 
3842 30 -4.148 -24.495 -26.326 
3843 2 -4.217 -23.467 -25.245 
3844 2 -3.681 -24.330 -27.711 
3845 3 -3.356 -25.825 -25.878 
3846 15 -3.455 -26.391 -24.595 
3847 14 -2.295 -26.105 -23.559 
5887 16 -4.140 -20.276 -25.553 
5889 16 -2.279 -20.995 -24.370 
5890 8 -3.290 -19.968 -24.434 
12493 58 -2.584 -25.281 -28.133 
3762 12 -7.410 -22.177 -22.676 
5888 16 -4.078 -20.098 -23.218 
12492 57 -1.845 -25.831 -28.522 
3761 4 -7.893 -23.441 -22.660 
3739 14 -8.133 -25.829 -23.273 
3740 4 -7.874 -26.488 -22.015 
3741 12 -6.661 -26.867 -21.551 
11440 58 -1.462 -18.933 -28.567 
11244 57 -12.337 -0.562 -28.438 
7303 58 -19.447 -26.851 42.515 
5464 2 -5.869 -18.476 -20.909 
3675 16 -4.632 -5.004 -23.188 
3871 1 -3.316 -22.561 -21.355 
12235 58 -0.930 -20.833 -28.047 
3852 15 -0.843 -27.128 -19.565 
10379 58 -23.363 -13.167 -30.352 
11753 58 -12.253 -13.583 -37.891 
10380 57 -25.975 -14.901 -29.095 
10656 57 -21.172 -17.447 -27.773 
10657 58 -20.391 -18.069 -27.831 
10658 58 -20.844 -16.502 -27.753 
10381 58 -25.403 -15.361 -28.417 
11174 58 -18.617 -17.876 -26.783 
10377 57 -22.973 -14.083 -30.254 
10900 58 -19.567 -15.848 -25.632 
10901 58 -20.469 -14.840 -26.548 
10647 57 -20.892 -14.623 -28.297 
4651 3 -24.401 -10.994 -28.729 
4652 30 -22.968 -10.385 -28.777 
10378 58 -23.710 -14.758 -30.226 
10899 57 -20.387 -15.275 -25.651 
4645 16 -24.308 -13.095 -26.328 